 written on  5Nov2024 at 12:50:20 
           4
        1155
    2    1    1    1    1    1    1    1    1    1    2    2    1    1    1
    1    1    1    1    1    1    2    2    1    1    1    1    1    1    1
    1    1    2    4    2    2    2    2    2    2    2    2    2    4    2
    1    1    1    1    1    1    1    1    1    2    2    1    1    1    1
    1    1    1    1    1    2    2    1    1    1    1    1    1    1    1
    1    2    2    1    1    1    1    1    1    1    1    1    2    4    2
    2    2    2    2    2    2    2    2    4    2    1    1    1    1    1
    1    1    1    1    2    2    1    1    1    1    1    1    1    1    1
    2    2    1    1    1    1    1    1    1    1    1    2    2    1    1
    1    1    1    1    1    1    1    2    2    1    1    1    1    1    1
    1    1    1    2    2    1    1    1    1    1    1    1    1    1    2
    2    1    1    1    1    1    1    1    1    1    2    2    1    1    1
    1    1    1    1    1    1    2    2    1    1    1    1    1    1    1
    1    1    2    2    1    1    1    1    1    1    1    1    1    2    2
    1    1    1    1    1    1    1    1    1    2    2    1    1    1    1
    1    1    1    1    1    2    2    1    1    1    1    1    1    1    1
    1    2    2    1    1    1    1    1    1    1    1    1    2    2    1
    1    1    1    1    1    1    1    1    2    2    1    1    1    1    1
    1    1    1    1    2    2    1    1    1    1    1    1    1    1    1
    2    4    2    2    2    2    2    2    2    2    2    4    2    1    1
    1    1    1    1    1    1    1    2    2    1    1    1    1    1    1
    1    1    1    2    2    1    1    1    1    1    1    1    1    1    2
    2    1    1    1    1    1    1    1    1    1    2    2    1    1    1
    1    1    1    1    1    1    2    2    1    1    1    1    1    1    1
    1    1    2    2    1    1    1    1    1    1    1    1    1    2    2
    1    1    1    1    1    1    1    1    1    2    2    1    1    1    1
    1    1    1    1    1    2    4    2    2    2    2    2    2    2    2
    2    4    2    1    1    1    1    1    1    1    1    1    2    2    1
    1    1    1    1    1    1    1    1    2    2    1    1    1    1    1
    1    1    1    1    2    2    1    1    1    1    1    1    1    1    1
    2    2    1    1    1    1    1    1    1    1    1    2    2    1    1
    1    1    1    1    1    1    1    2    2    1    1    1    1    1    1
    1    1    1    2    2    1    1    1    1    1    1    1    1    1    2
    2    1    1    1    1    1    1    1    1    1    2    2    1    1    1
    1    1    1    1    1    1    2    4    2    2    2    2    2    2    2
    2    2    4    2    1    1    1    1    1    1    1    1    1    2    2
    1    1    1    1    1    1    1    1    1    2    2    1    1    1    1
    1    1    1    1    1    2    2    1    1    1    1    1    1    1    1
    1    2    2    1    1    1    1    1    1    1    1    1    2    2    1
    1    1    1    1    1    1    1    1    2    2    1    1    1    1    1
    1    1    1    1    2    2    1    1    1    1    1    1    1    1    1
    2    2    1    1    1    1    1    1    1    1    1    2    4    2    2
    2    2    2    2    2    2    2    4    2    1    1    1    1    1    1
    1    1    1    2    2    1    1    1    1    1    1    1    1    1    2
    2    1    1    1    1    1    1    1    1    1    2    2    1    1    1
    1    1    1    1    1    1    2    2    1    1    1    1    1    1    1
    1    1    2    2    1    1    1    1    1    1    1    1    1    2    2
    1    1    1    1    1    1    1    1    1    2    2    1    1    1    1
    1    1    1    1    1    2    2    1    1    1    1    1    1    1    1
    1    2    2    1    1    1    1    1    1    1    1    1    2    4    2
    2    2    2    2    2    2    2    2    4    2    1    1    1    1    1
    1    1    1    1    2    2    1    1    1    1    1    1    1    1    1
    2    2    1    1    1    1    1    1    1    1    1    2    2    1    1
    1    1    1    1    1    1    1    2    2    1    1    1    1    1    1
    1    1    1    2    2    1    1    1    1    1    1    1    1    1    2
    2    1    1    1    1    1    1    1    1    1    2    2    1    1    1
    1    1    1    1    1    1    2    2    1    1    1    1    1    1    1
    1    1    2    4    2    2    2    2    2    2    2    2    2    4    2
    1    1    1    1    1    1    1    1    1    2    2    1    1    1    1
    1    1    1    1    1    2    2    1    1    1    1    1    1    1    1
    1    2    2    1    1    1    1    1    1    1    1    1    2    2    1
    1    1    1    1    1    1    1    1    2    2    1    1    1    1    1
    1    1    1    1    2    2    1    1    1    1    1    1    1    1    1
    2    2    1    1    1    1    1    1    1    1    1    2    2    1    1
    1    1    1    1    1    1    1    2    2    1    1    1    1    1    1
    1    1    1    2    2    1    1    1    1    1    1    1    1    1    2
    2    1    1    1    1    1    1    1    1    1    2    2    1    1    1
    1    1    1    1    1    1    2    2    1    1    1    1    1    1    1
    1    1    2    2    1    1    1    1    1    1    1    1    1    2    2
    1    1    1    1    1    1    1    1    1    2    2    1    1    1    1
    1    1    1    1    1    2    4    2    2    2    2    2    2    2    2
    2    4    2    1    1    1    1    1    1    1    1    1    2    2    1
    1    1    1    1    1    1    1    1    2    2    1    1    1    1    1
    1    1    1    1    2    2    1    1    1    1    1    1    1    1    1
    2    4    2    2    2    2    2    2    2    2    2    4    2    1    1
    1    1    1    1    1    1    1    2    2    1    1    1    1    1    1
    1    1    1    2    2    1    1    1    1    1    1    1    1    1    2
   -6   -4   -5    1    1 -0.000010366490 -0.000229195251
   -6   -4   -5    2    1  0.000207561076 -0.000066310024
   -6   -4   -5    3    1 -0.000107452636 -0.000419509281
   -6   -4   -5    4    1 -0.000539145705 -0.000256240767
   -6   -4   -5    1    2 -0.000206686889 -0.000073277400
   -6   -4   -5    2    2 -0.000006770538  0.000228620560
   -6   -4   -5    3    2  0.000538690375 -0.000253785868
   -6   -4   -5    4    2 -0.000103499525  0.000424149159
   -6   -4   -5    1    3 -0.000243428277  0.000351009272
   -6   -4   -5    2    3 -0.000108924852  0.000032204566
   -6   -4   -5    3    3  0.000088754157 -0.000062469725
   -6   -4   -5    4    3  0.000115896856  0.000116721462
   -6   -4   -5    1    4  0.000104540923  0.000042038388
   -6   -4   -5    2    4 -0.000245985802 -0.000356687205
   -6   -4   -5    3    4 -0.000114060522  0.000125399515
   -6   -4   -5    4    4  0.000085960771  0.000063118784
   -6   -4   -4    1    1  0.000242610273  0.000117822641
   -6   -4   -4    2    1  0.000413723977 -0.000083719830
   -6   -4   -4    3    1 -0.000492181110 -0.000890975238
   -6   -4   -4    4    1  0.000011753940  0.000048354592
   -6   -4   -4    1    2 -0.000411147697 -0.000086174019
   -6   -4   -4    2    2  0.000243775432 -0.000122097959
   -6   -4   -4    3    2 -0.000012391659  0.000052376413
   -6   -4   -4    4    2 -0.000496027783  0.000893433142
   -6   -4   -4    1    3  0.000163797358 -0.000350871543
   -6   -4   -4    2    3 -0.000704603979 -0.000250835106
   -6   -4   -4    3    3 -0.000229975275  0.000291765649
   -6   -4   -4    4    3  0.000758046667  0.000145845888
   -6   -4   -4    1    4  0.000698649273 -0.000256091529
   -6   -4   -4    2    4  0.000175537333  0.000349272558
   -6   -4   -4    3    4 -0.000761553697  0.000155327379
   -6   -4   -4    4    4 -0.000230820359 -0.000287394510
   -6   -4   -3    1    1 -0.000054684229 -0.000100780419
   -6   -4   -3    2    1  0.000115751673 -0.000400676069
   -6   -4   -3    3    1 -0.000616766704 -0.000589452298
   -6   -4   -3    4    1  0.000765853290  0.000048409723
   -6   -4   -3    1    2 -0.000112663028 -0.000402335342
   -6   -4   -3    2    2 -0.000053338098  0.000098604179
   -6   -4   -3    3    2 -0.000772899359  0.000045194717
   -6   -4   -3    4    2 -0.000617153489  0.000590367148
   -6   -4   -3    1    3 -0.000981101362 -0.000465742685
   -6   -4   -3    2    3 -0.000826361897 -0.000097432864
   -6   -4   -3    3    3  0.000161303766  0.000006551508
   -6   -4   -3    4    3  0.000858008794 -0.000024311116
   -6   -4   -3    1    4  0.000825579983 -0.000109121890
   -6   -4   -3    2    4 -0.000977831215  0.000468896125
   -6   -4   -3    3    4 -0.000882762306 -0.000024138255
   -6   -4   -3    4    4  0.000148108257 -0.000004444964
   -6   -4   -2    1    1  0.000165830239  0.000396947506
   -6   -4   -2    2    1  0.000929872013 -0.000378605725
   -6   -4   -2    3    1 -0.000952091400 -0.000515894811
   -6   -4   -2    4    1  0.000212345680 -0.001060887256
   -6   -4   -2    1    2 -0.000933662494 -0.000394365048
   -6   -4   -2    2    2  0.000148972904 -0.000393118790
   -6   -4   -2    3    2 -0.000210838831 -0.001058733037
   -6   -4   -2    4    2 -0.000947698472  0.000518437133
   -6   -4   -2    1    3  0.000438511881 -0.001210001834
   -6   -4   -2    2    3 -0.000840665527  0.000346529150
   -6   -4   -2    3    3  0.000013094508  0.000806160790
   -6   -4   -2    4    3  0.000722957304 -0.000673616381
   -6   -4   -2    1    4  0.000837975379  0.000317148810
   -6   -4   -2    2    4  0.000460661173  0.001214416342
   -6   -4   -2    3    4 -0.000750239338 -0.000691972541
   -6   -4   -2    4    4  0.000004643432 -0.000806551085
   -6   -4   -1    1    1  0.000745100021 -0.000346622121
   -6   -4   -1    2    1  0.001552671505 -0.001072564483
   -6   -4   -1    3    1 -0.001574224011 -0.000087010630
   -6   -4   -1    4    1 -0.000688845523  0.000416837734
   -6   -4   -1    1    2 -0.001547462495 -0.001069623767
   -6   -4   -1    2    2  0.000735781956  0.000351484985
   -6   -4   -1    3    2  0.000747080339  0.000429952758
   -6   -4   -1    4    2 -0.001584805689  0.000063103777
   -6   -4   -1    1    3 -0.000466379674  0.000260758145
   -6   -4   -1    2    3  0.000231320755  0.000647960380
   -6   -4   -1    3    3  0.000237131420 -0.000107047973
   -6   -4   -1    4    3 -0.000180890047  0.000065687937
   -6   -4   -1    1    4 -0.000219365625  0.000654304926
   -6   -4   -1    2    4 -0.000481052319 -0.000242063475
   -6   -4   -1    3    4  0.000177735151  0.000024557270
   -6   -4   -1    4    4  0.000195325180  0.000098429334
   -6   -4    0    1    1 -0.000509130557  0.000421560545
   -6   -4    0    2    1  0.002305648589 -0.002369207623
   -6   -4    0    3    1 -0.000033665543 -0.001537398121
   -6   -4    0    4    1 -0.000480918715  0.001096367518
   -6   -4    0    1    2 -0.002326297752 -0.002371713112
   -6   -4    0    2    2 -0.000494728592 -0.000395433474
   -6   -4    0    3    2  0.000527708705  0.001077863335
   -6   -4    0    4    2 -0.000030427262  0.001576719056
   -6   -4    0    1    3 -0.000215473845 -0.000662622875
   -6   -4    0    2    3  0.000013862706  0.001127242589
   -6   -4    0    3    3 -0.000369846244 -0.000181650058
   -6   -4    0    4    3 -0.001237685158 -0.000801047700
   -6   -4    0    1    4 -0.000017392092  0.001097782669
   -6   -4    0    2    4 -0.000228317154  0.000689682899
   -6   -4    0    3    4  0.001259754850 -0.000816245189
   -6   -4    0    4    4 -0.000369618753  0.000171580829
   -6   -4    1    1    1 -0.000700104561  0.000547721895
   -6   -4    1    2    1  0.001318121941 -0.000289528100
   -6   -4    1    3    1 -0.001272450128 -0.002055205903
   -6   -4    1    4    1 -0.000626672247  0.000815914817
   -6   -4    1    1    2 -0.001305002404 -0.000301044635
   -6   -4    1    2    2 -0.000700924188 -0.000519787984
   -6   -4    1    3    2  0.000622338243  0.000790431848
   -6   -4    1    4    2 -0.001248680969  0.002019993836
   -6   -4    1    1    3  0.002012305745 -0.000119646902
   -6   -4    1    2    3 -0.001422846045  0.000324931549
   -6   -4    1    3    3  0.000741003432 -0.001096267026
   -6   -4    1    4    3 -0.000377814636 -0.001498011834
   -6   -4    1    1    4  0.001448925790  0.000302373047
   -6   -4    1    2    4  0.002032710416  0.000143322347
   -6   -4    1    3    4  0.000353298601 -0.001548778736
   -6   -4    1    4    4  0.000763969287  0.001073286967
   -6   -4    2    1    1 -0.000218658399 -0.000275950977
   -6   -4    2    2    1 -0.000108117293 -0.000564193902
   -6   -4    2    3    1  0.001382984646 -0.001717127799
   -6   -4    2    4    1  0.002580372881 -0.000145614959
   -6   -4    2    1    2  0.000101681520 -0.000573096176
   -6   -4    2    2    2 -0.000210694734  0.000296855686
   -6   -4    2    3    2 -0.002566470185 -0.000149284085
   -6   -4    2    4    2  0.001359513120  0.001709751487
   -6   -4    2    1    3 -0.000378423104  0.001128582397
   -6   -4    2    2    3  0.000239709888  0.000744213475
   -6   -4    2    3    3  0.000072555328 -0.000418469884
   -6   -4    2    4    3  0.000614797287 -0.000111640965
   -6   -4    2    1    4 -0.000243601302  0.000733288631
   -6   -4    2    2    4 -0.000385952203 -0.001142562108
   -6   -4    2    3    4 -0.000624112557 -0.000111868602
   -6   -4    2    4    4  0.000056573137  0.000401342755
   -6   -4    3    1    1 -0.000227817115  0.000029155311
   -6   -4    3    2    1  0.001020524646  0.000091388279
   -6   -4    3    3    1  0.000695201486 -0.001298962333
   -6   -4    3    4    1  0.000011771573 -0.000656092710
   -6   -4    3    1    2 -0.001019582858  0.000088827719
   -6   -4    3    2    2 -0.000221922617 -0.000023887714
   -6   -4    3    3    2 -0.000022621971 -0.000663782097
   -6   -4    3    4    2  0.000704336155  0.001300262152
   -6   -4    3    1    3 -0.000775169717  0.000211865115
   -6   -4    3    2    3 -0.000368497606  0.000541989436
   -6   -4    3    3    3  0.000237592703  0.000416195054
   -6   -4    3    4    3  0.000262020209  0.000012318794
   -6   -4    3    1    4  0.000361665724  0.000549175269
   -6   -4    3    2    4 -0.000771232783 -0.000204868192
   -6   -4    3    3    4 -0.000264985127  0.000009982546
   -6   -4    3    4    4  0.000226542639 -0.000422802695
   -6   -4    4    1    1  0.000138596620 -0.000042158407
   -6   -4    4    2    1 -0.000012973724  0.000077865897
   -6   -4    4    3    1 -0.000487450394 -0.000318573511
   -6   -4    4    4    1  0.000220842220  0.000267555045
   -6   -4    4    1    2  0.000011525877  0.000081392741
   -6   -4    4    2    2  0.000140776589  0.000041266851
   -6   -4    4    3    2 -0.000221219570  0.000273056717
   -6   -4    4    4    2 -0.000486373498  0.000322224583
   -6   -4    4    1    3  0.000305720405  0.000034332102
   -6   -4    4    2    3  0.000168451384  0.000199584284
   -6   -4    4    3    3 -0.000214985078  0.000140555448
   -6   -4    4    4    3  0.000284471534  0.000114026320
   -6   -4    4    1    4 -0.000163158697  0.000181976929
   -6   -4    4    2    4  0.000295112452 -0.000029092262
   -6   -4    4    3    4 -0.000281776342  0.000113212414
   -6   -4    4    4    4 -0.000215639949 -0.000140290994
   -6   -4    5    1    1 -0.000010366490 -0.000229195251
   -6   -4    5    2    1  0.000207561076 -0.000066310024
   -6   -4    5    3    1 -0.000107452636 -0.000419509281
   -6   -4    5    4    1 -0.000539145705 -0.000256240767
   -6   -4    5    1    2 -0.000206686889 -0.000073277400
   -6   -4    5    2    2 -0.000006770538  0.000228620560
   -6   -4    5    3    2  0.000538690375 -0.000253785868
   -6   -4    5    4    2 -0.000103499525  0.000424149159
   -6   -4    5    1    3 -0.000243428277  0.000351009272
   -6   -4    5    2    3 -0.000108924852  0.000032204566
   -6   -4    5    3    3  0.000088754157 -0.000062469725
   -6   -4    5    4    3  0.000115896856  0.000116721462
   -6   -4    5    1    4  0.000104540923  0.000042038388
   -6   -4    5    2    4 -0.000245985802 -0.000356687205
   -6   -4    5    3    4 -0.000114060522  0.000125399515
   -6   -4    5    4    4  0.000085960771  0.000063118784
   -6   -3   -5    1    1 -0.000203754514  0.000198991928
   -6   -3   -5    2    1 -0.000038461062  0.000019431918
   -6   -3   -5    3    1  0.000198820216  0.000243095383
   -6   -3   -5    4    1 -0.000157487975 -0.000165045729
   -6   -3   -5    1    2  0.000041217102  0.000021880472
   -6   -3   -5    2    2 -0.000207677041 -0.000199042853
   -6   -3   -5    3    2  0.000152357720 -0.000159659594
   -6   -3   -5    4    2  0.000196751634 -0.000241048355
   -6   -3   -5    1    3  0.000033352599 -0.000209557491
   -6   -3   -5    2    3 -0.000189165370 -0.000277013493
   -6   -3   -5    3    3  0.000152768076 -0.000006812985
   -6   -3   -5    4    3  0.000049190820 -0.000650785094
   -6   -3   -5    1    4  0.000187996239 -0.000276112894
   -6   -3   -5    2    4  0.000035345589  0.000205991560
   -6   -3   -5    3    4 -0.000048155937 -0.000653071416
   -6   -3   -5    4    4  0.000148833236  0.000007140695
   -6   -3   -4    1    1 -0.000163336957 -0.000156847170
   -6   -3   -4    2    1 -0.000094552884  0.000213477114
   -6   -3   -4    3    1  0.000163043802  0.000141139859
   -6   -3   -4    4    1 -0.000096559054  0.000396853804
   -6   -3   -4    1    2  0.000096236589  0.000212820829
   -6   -3   -4    2    2 -0.000167195975  0.000151995348
   -6   -3   -4    3    2  0.000090468969  0.000389632259
   -6   -3   -4    4    2  0.000165009510 -0.000149208547
   -6   -3   -4    1    3 -0.000553362235  0.000483475279
   -6   -3   -4    2    3  0.000041657961  0.000384741655
   -6   -3   -4    3    3  0.000118668886 -0.000127589967
   -6   -3   -4    4    3 -0.000086359813 -0.000193422645
   -6   -3   -4    1    4 -0.000040088386  0.000394236525
   -6   -3   -4    2    4 -0.000557296380 -0.000486966436
   -6   -3   -4    3    4  0.000085388259 -0.000195890135
   -6   -3   -4    4    4  0.000111464920  0.000133581972
   -6   -3   -3    1    1 -0.000275272198 -0.000094970755
   -6   -3   -3    2    1  0.000078109063  0.000579078277
   -6   -3   -3    3    1  0.000859254160  0.000003117881
   -6   -3   -3    4    1  0.000225323380  0.000215850673
   -6   -3   -3    1    2 -0.000076262397  0.000579311199
   -6   -3   -3    2    2 -0.000272198831  0.000097288135
   -6   -3   -3    3    2 -0.000212916362  0.000213564763
   -6   -3   -3    4    2  0.000849649832 -0.000015504134
   -6   -3   -3    1    3 -0.000797969058  0.000576088256
   -6   -3   -3    2    3  0.000703941015 -0.000323488334
   -6   -3   -3    3    3 -0.000086131460 -0.000191189531
   -6   -3   -3    4    3  0.000269697812  0.000135130240
   -6   -3   -3    1    4 -0.000702957875 -0.000301881700
   -6   -3   -3    2    4 -0.000798155175 -0.000572433373
   -6   -3   -3    3    4 -0.000251863548  0.000130134274
   -6   -3   -3    4    4 -0.000091397796  0.000187403742
   -6   -3   -2    1    1 -0.000089351328 -0.000138527665
   -6   -3   -2    2    1 -0.000078423499  0.000658035215
   -6   -3   -2    3    1  0.000428558580  0.000234644501
   -6   -3   -2    4    1 -0.001403086768  0.000011465291
   -6   -3   -2    1    2  0.000096419444  0.000663848798
   -6   -3   -2    2    2 -0.000082903523  0.000150447785
   -6   -3   -2    3    2  0.001400018083  0.000008067135
   -6   -3   -2    4    2  0.000411908875 -0.000242701244
   -6   -3   -2    1    3 -0.001483410890  0.000319529172
   -6   -3   -2    2    3  0.000525390017  0.001126099149
   -6   -3   -2    3    3 -0.000230160608 -0.000501387360
   -6   -3   -2    4    3  0.000285962047  0.000772025150
   -6   -3   -2    1    4 -0.000529819556  0.001155813815
   -6   -3   -2    2    4 -0.001488198764 -0.000325611940
   -6   -3   -2    3    4 -0.000262697205  0.000761972242
   -6   -3   -2    4    4 -0.000218625355  0.000495943056
   -6   -3   -1    1    1  0.000186459762  0.000182369643
   -6   -3   -1    2    1 -0.000276698639  0.001412750500
   -6   -3   -1    3    1  0.000419830202  0.000167517318
   -6   -3   -1    4    1 -0.001315513717  0.000370632642
   -6   -3   -1    1    2  0.000297199357  0.001403460531
   -6   -3   -1    2    2  0.000199578658 -0.000188568760
   -6   -3   -1    3    2  0.001322502481  0.000371769554
   -6   -3   -1    4    2  0.000386006827 -0.000171668469
   -6   -3   -1    1    3  0.000052325107  0.000300999993
   -6   -3   -1    2    3  0.000351824486 -0.002377720679
   -6   -3   -1    3    3  0.000382127387 -0.000265657962
   -6   -3   -1    4    3  0.000968769310 -0.000042385164
   -6   -3   -1    1    4 -0.000391416025 -0.002367975031
   -6   -3   -1    2    4  0.000071544722 -0.000302000168
   -6   -3   -1    3    4 -0.000955693675 -0.000023471363
   -6   -3   -1    4    4  0.000411429335  0.000275724647
   -6   -3    0    1    1 -0.000156318721  0.000341801304
   -6   -3    0    2    1  0.000677964236  0.000690451234
   -6   -3    0    3    1  0.001562848931  0.000671666203
   -6   -3    0    4    1 -0.002009310446 -0.000467030653
   -6   -3    0    1    2 -0.000659957625  0.000695483280
   -6   -3    0    2    2 -0.000139533943 -0.000361964744
   -6   -3    0    3    2  0.002011731484 -0.000473179779
   -6   -3    0    4    2  0.001555162749 -0.000677206034
   -6   -3    0    1    3 -0.002335636738 -0.001551123711
   -6   -3    0    2    3 -0.001211415922 -0.000451919793
   -6   -3    0    3    3 -0.000477675865  0.000451608232
   -6   -3    0    4    3 -0.000846156005 -0.000849588331
   -6   -3    0    1    4  0.001195638308 -0.000443264140
   -6   -3    0    2    4 -0.002355770869  0.001541016690
   -6   -3    0    3    4  0.000844913364 -0.000847460953
   -6   -3    0    4    4 -0.000450910133 -0.000425018178
   -6   -3    1    1    1  0.000208568098 -0.000425983381
   -6   -3    1    2    1 -0.000475945694  0.000082391438
   -6   -3    1    3    1 -0.000807946001  0.001781884144
   -6   -3    1    4    1 -0.000396380772 -0.000255271927
   -6   -3    1    1    2  0.000472148878  0.000093638231
   -6   -3    1    2    2  0.000222892082  0.000426800650
   -6   -3    1    3    2  0.000388791312 -0.000265764953
   -6   -3    1    4    2 -0.000808984276 -0.001767754732
   -6   -3    1    1    3  0.001806297538 -0.001394278433
   -6   -3    1    2    3  0.000577765783  0.000743922012
   -6   -3    1    3    3  0.000146779366 -0.000879589805
   -6   -3    1    4    3  0.000409499595  0.000058325489
   -6   -3    1    1    4 -0.000624355064  0.000707203142
   -6   -3    1    2    4  0.001811028821  0.001395675871
   -6   -3    1    3    4 -0.000374484368  0.000059117734
   -6   -3    1    4    4  0.000159618331  0.000872681768
   -6   -3    2    1    1 -0.000739547729  0.000272151391
   -6   -3    2    2    1  0.000591086648  0.000334227607
   -6   -3    2    3    1  0.000216153227 -0.000092585297
   -6   -3    2    4    1 -0.000680958548 -0.001161840674
   -6   -3    2    1    2 -0.000579203641  0.000343802658
   -6   -3    2    2    2 -0.000717387826 -0.000272314625
   -6   -3    2    3    2  0.000688680697 -0.001159319739
   -6   -3    2    4    2  0.000216443689  0.000109252769
   -6   -3    2    1    3 -0.001323543441 -0.001545169945
   -6   -3    2    2    3  0.000059291301 -0.001231521665
   -6   -3    2    3    3  0.000357615562  0.000520303984
   -6   -3    2    4    3  0.001136145112 -0.000517656351
   -6   -3    2    1    4 -0.000092624044 -0.001231901196
   -6   -3    2    2    4 -0.001328618525  0.001534677520
   -6   -3    2    3    4 -0.001133816617 -0.000528496503
   -6   -3    2    4    4  0.000403112418 -0.000523958969
   -6   -3    3    1    1 -0.000004488794 -0.000027891487
   -6   -3    3    2    1  0.000178672596 -0.000162880714
   -6   -3    3    3    1 -0.000056312438  0.000278779599
   -6   -3    3    4    1 -0.000844074645 -0.000318353370
   -6   -3    3    1    2 -0.000175510985 -0.000156979786
   -6   -3    3    2    2 -0.000001557154  0.000016527169
   -6   -3    3    3    2  0.000863474087 -0.000318907791
   -6   -3    3    4    2 -0.000054730729 -0.000279646280
   -6   -3    3    1    3 -0.000468968304 -0.000086448208
   -6   -3    3    2    3 -0.000020216785 -0.000234873839
   -6   -3    3    3    3 -0.000107678906 -0.000218108394
   -6   -3    3    4    3  0.000549782223 -0.000510996685
   -6   -3    3    1    4  0.000001566974 -0.000226805093
   -6   -3    3    2    4 -0.000465915823  0.000088002669
   -6   -3    3    3    4 -0.000549723826 -0.000510929713
   -6   -3    3    4    4 -0.000094886140  0.000229048137
   -6   -3    4    1    1 -0.000129769547  0.000031946453
   -6   -3    4    2    1  0.000152576371 -0.000254558186
   -6   -3    4    3    1 -0.000365136272 -0.000190562958
   -6   -3    4    4    1  0.000248218944 -0.000272450812
   -6   -3    4    1    2 -0.000153454416 -0.000256003364
   -6   -3    4    2    2 -0.000128070173 -0.000033857849
   -6   -3    4    3    2 -0.000231173868 -0.000267568863
   -6   -3    4    4    2 -0.000363838441  0.000176011346
   -6   -3    4    1    3  0.000506777286  0.000149846789
   -6   -3    4    2    3  0.000065648309 -0.000130421266
   -6   -3    4    3    3  0.000043585055 -0.000053113225
   -6   -3    4    4    3  0.000128024802  0.000013160167
   -6   -3    4    1    4 -0.000062316576 -0.000126269146
   -6   -3    4    2    4  0.000502941321 -0.000152023738
   -6   -3    4    3    4 -0.000128817270  0.000011220203
   -6   -3    4    4    4  0.000038935085  0.000056400555
   -6   -3    5    1    1 -0.000203754514  0.000198991928
   -6   -3    5    2    1 -0.000038461062  0.000019431918
   -6   -3    5    3    1  0.000198820216  0.000243095383
   -6   -3    5    4    1 -0.000157487975 -0.000165045729
   -6   -3    5    1    2  0.000041217102  0.000021880472
   -6   -3    5    2    2 -0.000207677041 -0.000199042853
   -6   -3    5    3    2  0.000152357720 -0.000159659594
   -6   -3    5    4    2  0.000196751634 -0.000241048355
   -6   -3    5    1    3  0.000033352599 -0.000209557491
   -6   -3    5    2    3 -0.000189165370 -0.000277013493
   -6   -3    5    3    3  0.000152768076 -0.000006812985
   -6   -3    5    4    3  0.000049190820 -0.000650785094
   -6   -3    5    1    4  0.000187996239 -0.000276112894
   -6   -3    5    2    4  0.000035345589  0.000205991560
   -6   -3    5    3    4 -0.000048155937 -0.000653071416
   -6   -3    5    4    4  0.000148833236  0.000007140695
   -6   -2   -5    1    1 -0.000008260812 -0.000227467643
   -6   -2   -5    2    1 -0.000166541494 -0.000144841516
   -6   -2   -5    3    1  0.000198023957  0.000241278468
   -6   -2   -5    4    1 -0.000060494631  0.000213642368
   -6   -2   -5    1    2  0.000161556327 -0.000143770671
   -6   -2   -5    2    2 -0.000011193581  0.000231339169
   -6   -2   -5    3    2  0.000065168173  0.000218204040
   -6   -2   -5    4    2  0.000195179791 -0.000239657310
   -6   -2   -5    1    3  0.000601308622 -0.000208230998
   -6   -2   -5    2    3  0.000797491876 -0.000273945487
   -6   -2   -5    3    3  0.000086282361 -0.000066610970
   -6   -2   -5    4    3  0.000050564468 -0.000163057637
   -6   -2   -5    1    4 -0.000793749143 -0.000270912408
   -6   -2   -5    2    4  0.000605999163  0.000201388808
   -6   -2   -5    3    4 -0.000044944273 -0.000159729062
   -6   -2   -5    4    4  0.000090859741  0.000062865012
   -6   -2   -4    1    1  0.000244422520  0.000120046903
   -6   -2   -4    2    1 -0.000281037037 -0.000315716324
   -6   -2   -4    3    1  0.000167389208  0.000142973732
   -6   -2   -4    4    1  0.000390355468 -0.000121286886
   -6   -2   -4    1    2  0.000278982732 -0.000314176047
   -6   -2   -4    2    2  0.000241272224 -0.000118039192
   -6   -2   -4    3    2 -0.000389519121 -0.000114862970
   -6   -2   -4    4    2  0.000165026419 -0.000143069129
   -6   -2   -4    1    3 -0.000229866061 -0.000149712853
   -6   -2   -4    2    3  0.000056819096 -0.000401854183
   -6   -2   -4    3    3 -0.000230915856  0.000291716742
   -6   -2   -4    4    3 -0.000247938931 -0.000733804588
   -6   -2   -4    1    4 -0.000054384506 -0.000404399530
   -6   -2   -4    2    4 -0.000234903027  0.000157513842
   -6   -2   -4    3    4  0.000242713811 -0.000732130079
   -6   -2   -4    4    4 -0.000229240102 -0.000293939821
   -6   -2   -3    1    1 -0.000050687759 -0.000100186331
   -6   -2   -3    2    1 -0.000404778820  0.000099927436
   -6   -2   -3    3    1  0.000851265212  0.000001349996
   -6   -2   -3    4    1  0.000075032702 -0.000297432166
   -6   -2   -3    1    2  0.000401461128  0.000102585730
   -6   -2   -3    2    2 -0.000057593042  0.000101387995
   -6   -2   -3    3    2 -0.000079787200 -0.000302804728
   -6   -2   -3    4    2  0.000857574995 -0.000005756261
   -6   -2   -3    1    3  0.000528970824 -0.000291252954
   -6   -2   -3    2    3 -0.000158210373 -0.001799935275
   -6   -2   -3    3    3  0.000150914441  0.000004022201
   -6   -2   -3    4    3 -0.000462322182 -0.000746297724
   -6   -2   -3    1    4  0.000159809718 -0.001799396014
   -6   -2   -3    2    4  0.000527044844  0.000287143884
   -6   -2   -3    3    4  0.000444054060 -0.000737341593
   -6   -2   -3    4    4  0.000158982769 -0.000006099825
   -6   -2   -2    1    1  0.000156408412  0.000389560153
   -6   -2   -2    2    1 -0.000809343784 -0.000616465953
   -6   -2   -2    3    1  0.000410714557  0.000242250702
   -6   -2   -2    4    1  0.000699030856  0.001200982209
   -6   -2   -2    1    2  0.000793765973 -0.000614494903
   -6   -2   -2    2    2  0.000165183252 -0.000396318936
   -6   -2   -2    3    2 -0.000721100952  0.001207064545
   -6   -2   -2    4    2  0.000426343798 -0.000234244846
   -6   -2   -2    1    3  0.000067641839  0.000466615478
   -6   -2   -2    2    3 -0.000038519375  0.000590765356
   -6   -2   -2    3    3  0.000003235530  0.000810091970
   -6   -2   -2    4    3 -0.000960411829 -0.000294184427
   -6   -2   -2    1    4  0.000050370068  0.000574409066
   -6   -2   -2    2    4  0.000050808249 -0.000462409329
   -6   -2   -2    3    4  0.000944586815 -0.000297696690
   -6   -2   -2    4    4  0.000008313115 -0.000803593577
   -6   -2   -1    1    1  0.000739450298 -0.000360936700
   -6   -2   -1    2    1 -0.001702875275 -0.000805824515
   -6   -2   -1    3    1  0.000389753809  0.000168156467
   -6   -2   -1    4    1  0.000975905325  0.000951128295
   -6   -2   -1    1    2  0.001693646305 -0.000811193561
   -6   -2   -1    2    2  0.000745646216  0.000346159461
   -6   -2   -1    3    2 -0.000985688618  0.000946365777
   -6   -2   -1    4    2  0.000413462544 -0.000171279052
   -6   -2   -1    1    3  0.000798346542  0.001369782201
   -6   -2   -1    2    3  0.000190154467  0.000639335197
   -6   -2   -1    3    3  0.000203034388 -0.000092011223
   -6   -2   -1    4    3  0.000118799319  0.000134651210
   -6   -2   -1    1    4 -0.000155264563  0.000646264619
   -6   -2   -1    2    4  0.000787051868 -0.001397171650
   -6   -2   -1    3    4 -0.000138945397  0.000116558498
   -6   -2   -1    4    4  0.000224696411  0.000106634155
   -6   -2    0    1    1 -0.000490695828  0.000406828502
   -6   -2    0    2    1 -0.003200728190 -0.000811166766
   -6   -2    0    3    1  0.001577832786  0.000660546743
   -6   -2    0    4    1  0.000593650123  0.001970019174
   -6   -2    0    1    2  0.003200571289 -0.000818477005
   -6   -2    0    2    2 -0.000510150529 -0.000404738758
   -6   -2    0    3    2 -0.000605728028  0.001978214663
   -6   -2    0    4    2  0.001554891558 -0.000689531548
   -6   -2    0    1    3  0.001158014690  0.000818283769
   -6   -2    0    2    3  0.000011331436 -0.000263710717
   -6   -2    0    3    3 -0.000373283078 -0.000173307313
   -6   -2    0    4    3 -0.000086083308  0.001490563347
   -6   -2    0    1    4  0.000021460226 -0.000234098881
   -6   -2    0    2    4  0.001137582301 -0.000836657901
   -6   -2    0    3    4  0.000063292386  0.001463658774
   -6   -2    0    4    4 -0.000368587354  0.000183467068
   -6   -2    1    1    1 -0.000690300990  0.000530372175
   -6   -2    1    2    1 -0.000916829392 -0.000982684986
   -6   -2    1    3    1 -0.000802269357  0.001766182190
   -6   -2    1    4    1 -0.000043545608  0.000457250304
   -6   -2    1    1    2  0.000901620200 -0.000986482141
   -6   -2    1    2    2 -0.000697246944 -0.000548732360
   -6   -2    1    3    2  0.000018980071  0.000481197738
   -6   -2    1    4    2 -0.000804227850 -0.001795345685
   -6   -2    1    1    3  0.002759121817  0.000103366948
   -6   -2    1    2    3 -0.001558760108  0.000524345017
   -6   -2    1    3    3  0.000743957269 -0.001083569912
   -6   -2    1    4    3 -0.001160432145  0.001090282642
   -6   -2    1    1    4  0.001573937186  0.000512480669
   -6   -2    1    2    4  0.002743890268 -0.000127138104
   -6   -2    1    3    4  0.001113400388  0.001089298752
   -6   -2    1    4    4  0.000748185950  0.001099923727
   -6   -2    2    1    1 -0.000212911311 -0.000292869280
   -6   -2    2    2    1 -0.000450030059  0.000373837690
   -6   -2    2    3    1  0.000209960384 -0.000089352609
   -6   -2    2    4    1 -0.000680772580  0.001172465349
   -6   -2    2    1    2  0.000438747173  0.000382880471
   -6   -2    2    2    2 -0.000217501427  0.000281824501
   -6   -2    2    3    2  0.000657806025  0.001165102673
   -6   -2    2    4    2  0.000220987571  0.000099081340
   -6   -2    2    1    3  0.001291146258  0.000415062748
   -6   -2    2    2    3 -0.001857030880 -0.001239842115
   -6   -2    2    3    3  0.000063019664 -0.000400924945
   -6   -2    2    4    3 -0.000415592834 -0.000486507847
   -6   -2    2    1    4  0.001880406646 -0.001256434454
   -6   -2    2    2    4  0.001308946534 -0.000420255031
   -6   -2    2    3    4  0.000401102588 -0.000487759414
   -6   -2    2    4    4  0.000067605789  0.000415698752
   -6   -2    3    1    1 -0.000220102038  0.000025815752
   -6   -2    3    2    1 -0.000433687389 -0.000924392191
   -6   -2    3    3    1 -0.000056640081  0.000285545776
   -6   -2    3    4    1  0.000143643545  0.000901459702
   -6   -2    3    1    2  0.000427581370 -0.000929767072
   -6   -2    3    2    2 -0.000229447943 -0.000027842124
   -6   -2    3    3    2 -0.000150548840  0.000892366938
   -6   -2    3    4    2 -0.000050998712 -0.000282104334
   -6   -2    3    1    3  0.000521349261  0.000086407935
   -6   -2    3    2    3  0.000540789132 -0.000438965467
   -6   -2    3    3    3  0.000224171401  0.000423302518
   -6   -2    3    4    3 -0.000119720643 -0.000228859711
   -6   -2    3    1    4 -0.000529297939 -0.000452468535
   -6   -2    3    2    4  0.000530456770 -0.000093291313
   -6   -2    3    3    4  0.000118940434 -0.000237113327
   -6   -2    3    4    4  0.000240430692 -0.000421267011
   -6   -2    4    1    1  0.000137650514 -0.000040978870
   -6   -2    4    2    1  0.000071659588 -0.000028432596
   -6   -2    4    3    1 -0.000364018005 -0.000189113300
   -6   -2    4    4    1 -0.000358837659 -0.000064692559
   -6   -2    4    1    2 -0.000076296591 -0.000030335031
   -6   -2    4    2    2  0.000140533737  0.000042541434
   -6   -2    4    3    2  0.000358266517 -0.000080521446
   -6   -2    4    4    2 -0.000362867859  0.000183814809
   -6   -2    4    1    3 -0.000013973172  0.000085271652
   -6   -2    4    2    3  0.000007549182  0.000343845653
   -6   -2    4    3    3 -0.000214204440  0.000140556804
   -6   -2    4    4    3 -0.000042441327 -0.000303766352
   -6   -2    4    1    4 -0.000011631424  0.000344537458
   -6   -2    4    2    4 -0.000018775587 -0.000079250692
   -6   -2    4    3    4  0.000043294690 -0.000305570350
   -6   -2    4    4    4 -0.000215187411 -0.000142271417
   -6   -2    5    1    1 -0.000008260812 -0.000227467643
   -6   -2    5    2    1 -0.000166541494 -0.000144841516
   -6   -2    5    3    1  0.000198023957  0.000241278468
   -6   -2    5    4    1 -0.000060494631  0.000213642368
   -6   -2    5    1    2  0.000161556327 -0.000143770671
   -6   -2    5    2    2 -0.000011193581  0.000231339169
   -6   -2    5    3    2  0.000065168173  0.000218204040
   -6   -2    5    4    2  0.000195179791 -0.000239657310
   -6   -2    5    1    3  0.000601308622 -0.000208230998
   -6   -2    5    2    3  0.000797491876 -0.000273945487
   -6   -2    5    3    3  0.000086282361 -0.000066610970
   -6   -2    5    4    3  0.000050564468 -0.000163057637
   -6   -2    5    1    4 -0.000793749143 -0.000270912408
   -6   -2    5    2    4  0.000605999163  0.000201388808
   -6   -2    5    3    4 -0.000044944273 -0.000159729062
   -6   -2    5    4    4  0.000090859741  0.000062865012
   -5   -5   -5    1    1 -0.000152585309 -0.000000000000
   -5   -5   -5    2    1  0.000001803028 -0.000001004727
   -5   -5   -5    3    1  0.000097808018 -0.000228702154
   -5   -5   -5    4    1  0.000135946975  0.000028331915
   -5   -5   -5    1    2  0.000001803028  0.000001004727
   -5   -5   -5    2    2 -0.000150968285  0.000000000000
   -5   -5   -5    3    2 -0.000135347085  0.000027178718
   -5   -5   -5    4    2  0.000096456197  0.000223062942
   -5   -5   -5    1    3  0.000097808018  0.000228702154
   -5   -5   -5    2    3 -0.000135347085 -0.000027178718
   -5   -5   -5    3    3  0.000063164960 -0.000000000000
   -5   -5   -5    4    3  0.000004657793  0.000002800440
   -5   -5   -5    1    4  0.000135946975 -0.000028331915
   -5   -5   -5    2    4  0.000096456197 -0.000223062942
   -5   -5   -5    3    4  0.000004657793 -0.000002800440
   -5   -5   -5    4    4  0.000062743299 -0.000000000000
   -5   -5   -4    1    1 -0.000270406907 -0.000089004598
   -5   -5   -4    2    1 -0.000328886288  0.000223222694
   -5   -5   -4    3    1  0.000148983614  0.000075336384
   -5   -5   -4    4    1 -0.000325305706 -0.000333947501
   -5   -5   -4    1    2  0.000333349758  0.000219883721
   -5   -5   -4    2    2 -0.000270195516  0.000087209597
   -5   -5   -4    3    2  0.000327684382 -0.000336161708
   -5   -5   -4    4    2  0.000143578597 -0.000080130309
   -5   -5   -4    1    3  0.000280842091  0.000353571612
   -5   -5   -4    2    3  0.000319688149  0.000364515214
   -5   -5   -4    3    3  0.000234153509 -0.000114264724
   -5   -5   -4    4    3  0.000043660020  0.000263440878
   -5   -5   -4    1    4 -0.000324608741  0.000365810558
   -5   -5   -4    2    4  0.000276241604 -0.000351990306
   -5   -5   -4    3    4 -0.000036446171  0.000257231722
   -5   -5   -4    4    4  0.000229339873  0.000114918036
   -5   -5   -3    1    1 -0.000286051492  0.000217435077
   -5   -5   -3    2    1 -0.000503893747  0.000150276223
   -5   -5   -3    3    1 -0.000253036706 -0.001012027883
   -5   -5   -3    4    1 -0.000288077125 -0.000044491230
   -5   -5   -3    1    2  0.000509803489  0.000144580017
   -5   -5   -3    2    2 -0.000280421511 -0.000216408038
   -5   -5   -3    3    2  0.000266735762 -0.000044382874
   -5   -5   -3    4    2 -0.000255852944  0.000997860565
   -5   -5   -3    1    3  0.000170193428 -0.000494322516
   -5   -5   -3    2    3 -0.000414164950 -0.000170996736
   -5   -5   -3    3    3  0.000001729051  0.000319540930
   -5   -5   -3    4    3  0.000593354453  0.000187105807
   -5   -5   -3    1    4  0.000419424513 -0.000171876618
   -5   -5   -3    2    4  0.000175326760  0.000491840790
   -5   -5   -3    3    4 -0.000594639249  0.000186372538
   -5   -5   -3    4    4 -0.000007672926 -0.000318603777
   -5   -5   -2    1    1  0.000247325593 -0.000215941748
   -5   -5   -2    2    1 -0.000175071457  0.000910012324
   -5   -5   -2    3    1 -0.000560094075  0.000748925893
   -5   -5   -2    4    1 -0.000554924536  0.000179726031
   -5   -5   -2    1    2  0.000180481172  0.000907613503
   -5   -5   -2    2    2  0.000254149281  0.000208564873
   -5   -5   -2    3    2  0.000522105543  0.000197871704
   -5   -5   -2    4    2 -0.000568373370 -0.000742371064
   -5   -5   -2    1    3 -0.000793870734  0.000886494831
   -5   -5   -2    2    3 -0.000016529224 -0.000992418796
   -5   -5   -2    3    3 -0.000373012973  0.000006547834
   -5   -5   -2    4    3  0.000361877588 -0.000361400596
   -5   -5   -2    1    4  0.000031257849 -0.001009103328
   -5   -5   -2    2    4 -0.000805866265 -0.000876765224
   -5   -5   -2    3    4 -0.000379494644 -0.000380870993
   -5   -5   -2    4    4 -0.000389789914 -0.000004125191
   -5   -5   -1    1    1  0.000214338372  0.000953306512
   -5   -5   -1    2    1 -0.000328018449  0.000184501129
   -5   -5   -1    3    1 -0.000642475782 -0.001730572263
   -5   -5   -1    4    1  0.001021859857 -0.001362609058
   -5   -5   -1    1    2  0.000341382246  0.000148435861
   -5   -5   -1    2    2  0.000229810032 -0.000982590552
   -5   -5   -1    3    2 -0.000992106117 -0.001345428733
   -5   -5   -1    4    2 -0.000662571114  0.001709253817
   -5   -5   -1    1    3  0.001883071261  0.001629020701
   -5   -5   -1    2    3  0.000625944881 -0.000763921706
   -5   -5   -1    3    3  0.001170158490  0.001383302074
   -5   -5   -1    4    3  0.001744405973  0.000317343731
   -5   -5   -1    1    4 -0.000620840367 -0.000738315895
   -5   -5   -1    2    4  0.001844500507 -0.001593053977
   -5   -5   -1    3    4 -0.001698298439  0.000289434010
   -5   -5   -1    4    4  0.001164057117 -0.001382626902
   -5   -5    0    1    1 -0.003314308091  0.000000000000
   -5   -5    0    2    1 -0.000023060589  0.000001250319
   -5   -5    0    3    1  0.000808282775  0.000763085397
   -5   -5    0    4    1  0.000115609953 -0.002420879263
   -5   -5    0    1    2 -0.000023060589 -0.000001250319
   -5   -5    0    2    2 -0.003321586193  0.000000000000
   -5   -5    0    3    2 -0.000123462337 -0.002402623477
   -5   -5    0    4    2  0.000800572567 -0.000786297620
   -5   -5    0    1    3  0.000808282775 -0.000763085397
   -5   -5    0    2    3 -0.000123462337  0.002402623477
   -5   -5    0    3    3 -0.001917251813  0.000000000000
   -5   -5    0    4    3  0.000025567219 -0.000011627441
   -5   -5    0    1    4  0.000115609953  0.002420879263
   -5   -5    0    2    4  0.000800572567  0.000786297620
   -5   -5    0    3    4  0.000025567219  0.000011627441
   -5   -5    0    4    4 -0.001900604393  0.000000000000
   -5   -5    1    1    1  0.000214338372 -0.000953306512
   -5   -5    1    2    1  0.000341382246 -0.000148435861
   -5   -5    1    3    1  0.001883071261 -0.001629020701
   -5   -5    1    4    1 -0.000620840367  0.000738315895
   -5   -5    1    1    2 -0.000328018449 -0.000184501129
   -5   -5    1    2    2  0.000229810032  0.000982590552
   -5   -5    1    3    2  0.000625944881  0.000763921706
   -5   -5    1    4    2  0.001844500507  0.001593053977
   -5   -5    1    1    3 -0.000642475782  0.001730572263
   -5   -5    1    2    3 -0.000992106117  0.001345428733
   -5   -5    1    3    3  0.001170158490 -0.001383302074
   -5   -5    1    4    3 -0.001698298439 -0.000289434010
   -5   -5    1    1    4  0.001021859857  0.001362609058
   -5   -5    1    2    4 -0.000662571114 -0.001709253817
   -5   -5    1    3    4  0.001744405973 -0.000317343731
   -5   -5    1    4    4  0.001164057117  0.001382626902
   -5   -5    2    1    1  0.000247325593  0.000215941748
   -5   -5    2    2    1  0.000180481172 -0.000907613503
   -5   -5    2    3    1 -0.000793870734 -0.000886494831
   -5   -5    2    4    1  0.000031257849  0.001009103328
   -5   -5    2    1    2 -0.000175071457 -0.000910012324
   -5   -5    2    2    2  0.000254149281 -0.000208564873
   -5   -5    2    3    2 -0.000016529224  0.000992418796
   -5   -5    2    4    2 -0.000805866265  0.000876765224
   -5   -5    2    1    3 -0.000560094075 -0.000748925893
   -5   -5    2    2    3  0.000522105543 -0.000197871704
   -5   -5    2    3    3 -0.000373012973 -0.000006547834
   -5   -5    2    4    3 -0.000379494644  0.000380870993
   -5   -5    2    1    4 -0.000554924536 -0.000179726031
   -5   -5    2    2    4 -0.000568373370  0.000742371064
   -5   -5    2    3    4  0.000361877588  0.000361400596
   -5   -5    2    4    4 -0.000389789914  0.000004125191
   -5   -5    3    1    1 -0.000286051492 -0.000217435077
   -5   -5    3    2    1  0.000509803489 -0.000144580017
   -5   -5    3    3    1  0.000170193428  0.000494322516
   -5   -5    3    4    1  0.000419424513  0.000171876618
   -5   -5    3    1    2 -0.000503893747 -0.000150276223
   -5   -5    3    2    2 -0.000280421511  0.000216408038
   -5   -5    3    3    2 -0.000414164950  0.000170996736
   -5   -5    3    4    2  0.000175326760 -0.000491840790
   -5   -5    3    1    3 -0.000253036706  0.001012027883
   -5   -5    3    2    3  0.000266735762  0.000044382874
   -5   -5    3    3    3  0.000001729051 -0.000319540930
   -5   -5    3    4    3 -0.000594639249 -0.000186372538
   -5   -5    3    1    4 -0.000288077125  0.000044491230
   -5   -5    3    2    4 -0.000255852944 -0.000997860565
   -5   -5    3    3    4  0.000593354453 -0.000187105807
   -5   -5    3    4    4 -0.000007672926  0.000318603777
   -5   -5    4    1    1 -0.000270406907  0.000089004598
   -5   -5    4    2    1  0.000333349758 -0.000219883721
   -5   -5    4    3    1  0.000280842091 -0.000353571612
   -5   -5    4    4    1 -0.000324608741 -0.000365810558
   -5   -5    4    1    2 -0.000328886288 -0.000223222694
   -5   -5    4    2    2 -0.000270195516 -0.000087209597
   -5   -5    4    3    2  0.000319688149 -0.000364515214
   -5   -5    4    4    2  0.000276241604  0.000351990306
   -5   -5    4    1    3  0.000148983614 -0.000075336384
   -5   -5    4    2    3  0.000327684382  0.000336161708
   -5   -5    4    3    3  0.000234153509  0.000114264724
   -5   -5    4    4    3 -0.000036446171 -0.000257231722
   -5   -5    4    1    4 -0.000325305706  0.000333947501
   -5   -5    4    2    4  0.000143578597  0.000080130309
   -5   -5    4    3    4  0.000043660020 -0.000263440878
   -5   -5    4    4    4  0.000229339873 -0.000114918036
   -5   -5    5    1    1 -0.000152585309  0.000000000000
   -5   -5    5    2    1  0.000001803028 -0.000001004727
   -5   -5    5    3    1  0.000097808018 -0.000228702154
   -5   -5    5    4    1  0.000135946975  0.000028331915
   -5   -5    5    1    2  0.000001803028  0.000001004727
   -5   -5    5    2    2 -0.000150968285  0.000000000000
   -5   -5    5    3    2 -0.000135347085  0.000027178718
   -5   -5    5    4    2  0.000096456197  0.000223062942
   -5   -5    5    1    3  0.000097808018  0.000228702154
   -5   -5    5    2    3 -0.000135347085 -0.000027178718
   -5   -5    5    3    3  0.000063164960  0.000000000000
   -5   -5    5    4    3  0.000004657793  0.000002800440
   -5   -5    5    1    4  0.000135946975 -0.000028331915
   -5   -5    5    2    4  0.000096456197 -0.000223062942
   -5   -5    5    3    4  0.000004657793 -0.000002800440
   -5   -5    5    4    4  0.000062743299  0.000000000000
   -5   -4   -5    1    1  0.000140419587  0.000127197578
   -5   -4   -5    2    1 -0.000220500776 -0.000192916619
   -5   -4   -5    3    1 -0.000097086638  0.000068529576
   -5   -4   -5    4    1  0.000228667734 -0.000263429519
   -5   -4   -5    1    2  0.000218798804 -0.000194861334
   -5   -4   -5    2    2  0.000140793658 -0.000129391116
   -5   -4   -5    3    2 -0.000225302938 -0.000259198883
   -5   -4   -5    4    2 -0.000097672041 -0.000067027791
   -5   -4   -5    1    3 -0.000712480998  0.000402679275
   -5   -4   -5    2    3  0.000122842295  0.000029746582
   -5   -4   -5    3    3 -0.000151610586  0.000614685364
   -5   -4   -5    4    3 -0.000276913970 -0.000297970186
   -5   -4   -5    1    4 -0.000123836236  0.000032860407
   -5   -4   -5    2    4 -0.000710668237 -0.000405003902
   -5   -4   -5    3    4  0.000278826079 -0.000299516417
   -5   -4   -5    4    4 -0.000158639825 -0.000612505495
   -5   -4   -4    1    1  0.000141875458  0.000081854772
   -5   -4   -4    2    1 -0.000172747763 -0.000254686220
   -5   -4   -4    3    1  0.000743603491 -0.000341248207
   -5   -4   -4    4    1  0.000153561295 -0.000232435342
   -5   -4   -4    1    2  0.000169281867 -0.000256995151
   -5   -4   -4    2    2  0.000136862124 -0.000085850824
   -5   -4   -4    3    2 -0.000153663778 -0.000229480700
   -5   -4   -4    4    2  0.000752391493  0.000347551363
   -5   -4   -4    1    3 -0.000047136256  0.000310974163
   -5   -4   -4    2    3  0.000159813010  0.000038411498
   -5   -4   -4    3    3 -0.000064359511 -0.000304087251
   -5   -4   -4    4    3 -0.000413405446 -0.000574335669
   -5   -4   -4    1    4 -0.000156300077  0.000035156041
   -5   -4   -4    2    4 -0.000051223249 -0.000309032689
   -5   -4   -4    3    4  0.000413922696 -0.000574796431
   -5   -4   -4    4    4 -0.000063512153  0.000308455675
   -5   -4   -3    1    1 -0.000465896204 -0.000121162186
   -5   -4   -3    2    1 -0.000263773786  0.000074422076
   -5   -4   -3    3    1  0.001120899547  0.000132576680
   -5   -4   -3    4    1  0.000016005691  0.000200668451
   -5   -4   -3    1    2  0.000256040612  0.000075262904
   -5   -4   -3    2    2 -0.000470291941  0.000118822694
   -5   -4   -3    3    2 -0.000001458946  0.000218077699
   -5   -4   -3    4    2  0.001119603164 -0.000117977695
   -5   -4   -3    1    3 -0.000084579567  0.000955081238
   -5   -4   -3    2    3  0.000337486791 -0.000192849819
   -5   -4   -3    3    3  0.000450610054 -0.000589596791
   -5   -4   -3    4    3 -0.000629706800 -0.000326087034
   -5   -4   -3    1    4 -0.000354773262 -0.000186689515
   -5   -4   -3    2    4 -0.000089858532 -0.000953073089
   -5   -4   -3    3    4  0.000639709582 -0.000318379184
   -5   -4   -3    4    4  0.000451277563  0.000590689586
   -5   -4   -2    1    1 -0.000163030036 -0.000363850769
   -5   -4   -2    2    1 -0.000301756409  0.000065575907
   -5   -4   -2    3    1  0.000833009673 -0.000538940666
   -5   -4   -2    4    1 -0.001117366634  0.000804364787
   -5   -4   -2    1    2  0.000309363440  0.000063635128
   -5   -4   -2    2    2 -0.000163552951  0.000362849173
   -5   -4   -2    3    2  0.001111734800  0.000799184135
   -5   -4   -2    4    2  0.000823307420  0.000542632101
   -5   -4   -2    1    3 -0.000294162209  0.000242015583
   -5   -4   -2    2    3  0.000443454781  0.000100375394
   -5   -4   -2    3    3  0.000415170208 -0.000669136371
   -5   -4   -2    4    3  0.000178611221 -0.001006580632
   -5   -4   -2    1    4 -0.000454980176  0.000093668124
   -5   -4   -2    2    4 -0.000281656115 -0.000257441315
   -5   -4   -2    3    4 -0.000160555597 -0.000995488537
   -5   -4   -2    4    4  0.000431186320  0.000666742190
   -5   -4   -1    1    1  0.000349583577 -0.000152143236
   -5   -4   -1    2    1 -0.000322143470  0.000373013428
   -5   -4   -1    3    1  0.002325514576  0.000225484664
   -5   -4   -1    4    1  0.000013463628  0.000668139377
   -5   -4   -1    1    2  0.000323932226  0.000384674878
   -5   -4   -1    2    2  0.000326818017  0.000155464413
   -5   -4   -1    3    2 -0.000043335512  0.000654998624
   -5   -4   -1    4    2  0.002324094682 -0.000202559526
   -5   -4   -1    1    3 -0.000297053232  0.000116085679
   -5   -4   -1    2    3 -0.000729944070  0.000895266910
   -5   -4   -1    3    3 -0.000383846564  0.000032484901
   -5   -4   -1    4    3 -0.000673082571 -0.001606903214
   -5   -4   -1    1    4  0.000730539487  0.000846335379
   -5   -4   -1    2    4 -0.000257665860 -0.000175490835
   -5   -4   -1    3    4  0.000616197091 -0.001583925212
   -5   -4   -1    4    4 -0.000375649756 -0.000027387372
   -5   -4    0    1    1 -0.000871405714 -0.001537187020
   -5   -4    0    2    1 -0.000740144651 -0.000551640735
   -5   -4    0    3    1  0.002698885431  0.001386587657
   -5   -4    0    4    1  0.000970031019 -0.000303009424
   -5   -4    0    1    2  0.000754999429 -0.000528279640
   -5   -4    0    2    2 -0.000872855876  0.001527282225
   -5   -4    0    3    2 -0.000992690451 -0.000283473675
   -5   -4    0    4    2  0.002749680814 -0.001367893319
   -5   -4    0    1    3 -0.002308403219 -0.002318297412
   -5   -4    0    2    3  0.000521374086  0.000877901557
   -5   -4    0    3    3  0.000227336992  0.000296073617
   -5   -4    0    4    3 -0.002921497049 -0.002271502975
   -5   -4    0    1    4 -0.000440550592  0.000841772918
   -5   -4    0    2    4 -0.002297136410  0.002286142470
   -5   -4    0    3    4  0.002869356771 -0.002291092477
   -5   -4    0    4    4  0.000243786482 -0.000314703522
   -5   -4    1    1    1  0.001234808361  0.001001675149
   -5   -4    1    2    1  0.000921745521 -0.000586123757
   -5   -4    1    3    1 -0.004920833715 -0.000071961601
   -5   -4    1    4    1 -0.002084377974 -0.000960014113
   -5   -4    1    1    2 -0.000941419523 -0.000553060225
   -5   -4    1    2    2  0.001250360479 -0.001001532512
   -5   -4    1    3    2  0.002057857775 -0.000938823920
   -5   -4    1    4    2 -0.004937359294  0.000095113726
   -5   -4    1    1    3  0.001731710899 -0.001703405143
   -5   -4    1    2    3  0.001610576105  0.000055775327
   -5   -4    1    3    3 -0.001200658776  0.000919234263
   -5   -4    1    4    3  0.000452521155  0.001856120019
   -5   -4    1    1    4 -0.001599220930  0.000056271510
   -5   -4    1    2    4  0.001742230630  0.001641277286
   -5   -4    1    3    4 -0.000436463427  0.001893175356
   -5   -4    1    4    4 -0.001204082183 -0.000939526357
   -5   -4    2    1    1  0.000764766414 -0.000446720512
   -5   -4    2    2    1 -0.001343625588  0.000176710254
   -5   -4    2    3    1 -0.000152043558  0.000912111733
   -5   -4    2    4    1  0.000353821871  0.000477044949
   -5   -4    2    1    2  0.001354806631  0.000182499253
   -5   -4    2    2    2  0.000771436540  0.000440910651
   -5   -4    2    3    2 -0.000372142682  0.000490852185
   -5   -4    2    4    2 -0.000149094266 -0.000891182906
   -5   -4    2    1    3  0.000940636456  0.000033291874
   -5   -4    2    2    3  0.000590691231 -0.000282585361
   -5   -4    2    3    3 -0.000152129014 -0.000812437792
   -5   -4    2    4    3  0.000008052548 -0.000818617834
   -5   -4    2    1    4 -0.000592152085 -0.000316195071
   -5   -4    2    2    4  0.000965250691 -0.000054657987
   -5   -4    2    3    4 -0.000007345049 -0.000834529226
   -5   -4    2    4    4 -0.000117858274  0.000810528725
   -5   -4    3    1    1  0.000003108878 -0.000670485174
   -5   -4    3    2    1 -0.000832632273 -0.000114152572
   -5   -4    3    3    1 -0.001882042935  0.000403312826
   -5   -4    3    4    1 -0.000136389894 -0.000782844416
   -5   -4    3    1    2  0.000837682562 -0.000117523483
   -5   -4    3    2    2  0.000008612112  0.000669546730
   -5   -4    3    3    2  0.000133452427 -0.000768655932
   -5   -4    3    4    2 -0.001879991531 -0.000404995665
   -5   -4    3    1    3  0.000178365859 -0.000171372011
   -5   -4    3    2    3  0.000859409088 -0.000748133790
   -5   -4    3    3    3  0.000208797814  0.000188726264
   -5   -4    3    4    3  0.000143355985 -0.000990322488
   -5   -4    3    1    4 -0.000847896114 -0.000757678611
   -5   -4    3    2    4  0.000176670158  0.000166268473
   -5   -4    3    3    4 -0.000146983336 -0.000981346609
   -5   -4    3    4    4  0.000216425530 -0.000186513025
   -5   -4    4    1    1  0.000242205108 -0.000014021707
   -5   -4    4    2    1 -0.000064005318  0.000269110697
   -5   -4    4    3    1  0.000597168686  0.000158380156
   -5   -4    4    4    1  0.000007776143 -0.000319019441
   -5   -4    4    1    2  0.000060660418  0.000269387492
   -5   -4    4    2    2  0.000239092981  0.000008465390
   -5   -4    4    3    2 -0.000004240343 -0.000332080680
   -5   -4    4    4    2  0.000595776703 -0.000153784314
   -5   -4    4    1    3 -0.000644283959  0.000479931565
   -5   -4    4    2    3 -0.000008941699 -0.000014707052
   -5   -4    4    3    3 -0.000235117688  0.000243336989
   -5   -4    4    4    3 -0.000602003556 -0.000508203893
   -5   -4    4    1    4  0.000016733546 -0.000004113651
   -5   -4    4    2    4 -0.000639229526 -0.000472812908
   -5   -4    4    3    4  0.000593463474 -0.000506614804
   -5   -4    4    4    4 -0.000232986058 -0.000238231573
   -5   -4    5    1    1  0.000140419587  0.000127197578
   -5   -4    5    2    1 -0.000220500776 -0.000192916619
   -5   -4    5    3    1 -0.000097086638  0.000068529576
   -5   -4    5    4    1  0.000228667734 -0.000263429519
   -5   -4    5    1    2  0.000218798804 -0.000194861334
   -5   -4    5    2    2  0.000140793658 -0.000129391116
   -5   -4    5    3    2 -0.000225302938 -0.000259198883
   -5   -4    5    4    2 -0.000097672041 -0.000067027791
   -5   -4    5    1    3 -0.000712480998  0.000402679275
   -5   -4    5    2    3  0.000122842295  0.000029746582
   -5   -4    5    3    3 -0.000151610586  0.000614685364
   -5   -4    5    4    3 -0.000276913970 -0.000297970186
   -5   -4    5    1    4 -0.000123836236  0.000032860407
   -5   -4    5    2    4 -0.000710668237 -0.000405003902
   -5   -4    5    3    4  0.000278826079 -0.000299516417
   -5   -4    5    4    4 -0.000158639825 -0.000612505495
   -5   -3   -5    1    1  0.000098973112 -0.000107867700
   -5   -3   -5    2    1 -0.000054190658  0.000059345886
   -5   -3   -5    3    1 -0.000252953530  0.000333021145
   -5   -3   -5    4    1  0.000420066308  0.000197844387
   -5   -3   -5    1    2  0.000053951948  0.000064556335
   -5   -3   -5    2    2  0.000099453684  0.000109984221
   -5   -3   -5    3    2 -0.000418410517  0.000199054594
   -5   -3   -5    4    2 -0.000252712963 -0.000337577643
   -5   -3   -5    1    3  0.000516245363  0.000399994833
   -5   -3   -5    2    3 -0.000321658700 -0.000274037889
   -5   -3   -5    3    3 -0.000104687805  0.000382241476
   -5   -3   -5    4    3  0.000122000910  0.000169681569
   -5   -3   -5    1    4  0.000321929586 -0.000284580572
   -5   -3   -5    2    4  0.000525417715 -0.000392716036
   -5   -3   -5    3    4 -0.000126578113  0.000174759053
   -5   -3   -5    4    4 -0.000092995084 -0.000384367695
   -5   -3   -4    1    1 -0.000146156146  0.000105120431
   -5   -3   -4    2    1 -0.000044905876  0.000043290121
   -5   -3   -4    3    1 -0.000062673861  0.000825570941
   -5   -3   -4    4    1  0.000038047803 -0.000606748982
   -5   -3   -4    1    2  0.000044498362  0.000044554801
   -5   -3   -4    2    2 -0.000144372067 -0.000097497963
   -5   -3   -4    3    2 -0.000034564291 -0.000609023607
   -5   -3   -4    4    2 -0.000068193396 -0.000825878969
   -5   -3   -4    1    3 -0.000054327520  0.000182768740
   -5   -3   -4    2    3  0.000062490283 -0.000410920266
   -5   -3   -4    3    3  0.000237330867  0.000832569634
   -5   -3   -4    4    3 -0.000049820352  0.000219864879
   -5   -3   -4    1    4 -0.000061549044 -0.000408505028
   -5   -3   -4    2    4 -0.000060138059 -0.000176013257
   -5   -3   -4    3    4  0.000047288149  0.000220433907
   -5   -3   -4    4    4  0.000235946093 -0.000840069675
   -5   -3   -3    1    1  0.000296581269  0.000093560982
   -5   -3   -3    2    1 -0.000317586373 -0.000339839151
   -5   -3   -3    3    1 -0.000284079166  0.000764504655
   -5   -3   -3    4    1  0.000703773205 -0.000938915286
   -5   -3   -3    1    2  0.000318510430 -0.000337676316
   -5   -3   -3    2    2  0.000297613684 -0.000091626948
   -5   -3   -3    3    2 -0.000718581920 -0.000943446493
   -5   -3   -3    4    2 -0.000286525848 -0.000773915601
   -5   -3   -3    1    3  0.000595320543 -0.000004148415
   -5   -3   -3    2    3 -0.000155251749  0.000172801042
   -5   -3   -3    3    3 -0.000393366641  0.001625893885
   -5   -3   -3    4    3 -0.000106022852  0.000031911943
   -5   -3   -3    1    4  0.000175701901  0.000177216591
   -5   -3   -3    2    4  0.000602943138  0.000009732898
   -5   -3   -3    3    4  0.000095893027  0.000024027233
   -5   -3   -3    4    4 -0.000386293175 -0.001626783957
   -5   -3   -2    1    1  0.000286815490  0.000408306417
   -5   -3   -2    2    1 -0.000435102735  0.000124844831
   -5   -3   -2    3    1  0.000043333271 -0.000060802689
   -5   -3   -2    4    1 -0.000192229641 -0.001232943608
   -5   -3   -2    1    2  0.000441301800  0.000142006380
   -5   -3   -2    2    2  0.000298684391 -0.000413050289
   -5   -3   -2    3    2  0.000181336651 -0.001247281111
   -5   -3   -2    4    2  0.000053224719  0.000051196498
   -5   -3   -2    1    3 -0.000774020122  0.000040744269
   -5   -3   -2    2    3  0.000054944364 -0.000808871024
   -5   -3   -2    3    3 -0.000411046744  0.001721273763
   -5   -3   -2    4    3  0.000337397282  0.000333202555
   -5   -3   -2    1    4 -0.000034892027 -0.000786974006
   -5   -3   -2    2    4 -0.000801779532 -0.000020199405
   -5   -3   -2    3    4 -0.000345248174  0.000336608210
   -5   -3   -2    4    4 -0.000430444738 -0.001711937026
   -5   -3   -1    1    1 -0.000294413485 -0.000045013186
   -5   -3   -1    2    1  0.000689465219 -0.000424831394
   -5   -3   -1    3    1 -0.000921442623 -0.000295185329
   -5   -3   -1    4    1 -0.001975792032 -0.000654360387
   -5   -3   -1    1    2 -0.000696640224 -0.000396060716
   -5   -3   -1    2    2 -0.000318332752  0.000027403136
   -5   -3   -1    3    2  0.001976409887 -0.000686105274
   -5   -3   -1    4    2 -0.000926181001  0.000246855307
   -5   -3   -1    1    3  0.002563487202  0.000480174338
   -5   -3   -1    2    3  0.000106189275 -0.001067041465
   -5   -3   -1    3    3  0.001113431906  0.000011990294
   -5   -3   -1    4    3 -0.000879827413  0.002827624874
   -5   -3   -1    1    4 -0.000073311027 -0.001015251468
   -5   -3   -1    2    4  0.002493504104 -0.000436734482
   -5   -3   -1    3    4  0.000902312086  0.002789956809
   -5   -3   -1    4    4  0.001101808455  0.000005935966
   -5   -3    0    1    1 -0.000248318582  0.001867040515
   -5   -3    0    2    1  0.000084472189 -0.000759695474
   -5   -3    0    3    1  0.000465203219  0.000261861695
   -5   -3    0    4    1 -0.001513239267 -0.000866791174
   -5   -3    0    1    2 -0.000118922704 -0.000749961785
   -5   -3    0    2    2 -0.000293453423 -0.001860650951
   -5   -3    0    3    2  0.001509816949 -0.000887571010
   -5   -3    0    4    2  0.000446997712 -0.000287261608
   -5   -3    0    1    3 -0.001402132129 -0.001185584167
   -5   -3    0    2    3  0.000322997115 -0.000623616691
   -5   -3    0    3    3 -0.000641783817  0.001176386958
   -5   -3    0    4    3 -0.000954187605  0.002404356780
   -5   -3    0    1    4 -0.000340135462 -0.000565894684
   -5   -3    0    2    4 -0.001414423607  0.001202399948
   -5   -3    0    3    4  0.001051220987  0.002408526644
   -5   -3    0    4    4 -0.000658841674 -0.001178125937
   -5   -3    1    1    1 -0.000338212646  0.000617757122
   -5   -3    1    2    1  0.001110138521  0.000747660266
   -5   -3    1    3    1  0.000225045845 -0.001357085883
   -5   -3    1    4    1 -0.003737055437  0.000303978569
   -5   -3    1    1    2 -0.001106608166  0.000726644199
   -5   -3    1    2    2 -0.000350308676 -0.000608566051
   -5   -3    1    3    2  0.003732424448  0.000270132874
   -5   -3    1    4    2  0.000259702817  0.001329576492
   -5   -3    1    1    3  0.002593912212 -0.000331603625
   -5   -3    1    2    3 -0.000199023971  0.001457498350
   -5   -3    1    3    3  0.001041892237  0.000484686769
   -5   -3    1    4    3  0.001921815350  0.000460656520
   -5   -3    1    1    4  0.000193523356  0.001433041392
   -5   -3    1    2    4  0.002601322061  0.000364279605
   -5   -3    1    3    4 -0.001931065009  0.000457870269
   -5   -3    1    4    4  0.001015656961 -0.000490709603
   -5   -3    2    1    1 -0.000393857376 -0.000544779930
   -5   -3    2    2    1  0.000155020873 -0.000201512415
   -5   -3    2    3    1  0.002934333136  0.000414518596
   -5   -3    2    4    1  0.000419811301 -0.000662272199
   -5   -3    2    1    2 -0.000165123496 -0.000194527462
   -5   -3    2    2    2 -0.000387947048  0.000534558258
   -5   -3    2    3    2 -0.000407960310 -0.000680945417
   -5   -3    2    4    2  0.002941209946 -0.000402782982
   -5   -3    2    1    3  0.001502444474 -0.000717805981
   -5   -3    2    2    3  0.000149866971  0.001723350058
   -5   -3    2    3    3  0.000450546038  0.000511506489
   -5   -3    2    4    3  0.001134190619  0.001914744478
   -5   -3    2    1    4 -0.000134298228  0.001715419756
   -5   -3    2    2    4  0.001470862365  0.000719635138
   -5   -3    2    3    4 -0.001099186552  0.001905440042
   -5   -3    2    4    4  0.000428343223 -0.000502450729
   -5   -3    3    1    1 -0.000044009745  0.000068366126
   -5   -3    3    2    1 -0.000125941975  0.000561502826
   -5   -3    3    3    1  0.000816966762  0.001138978835
   -5   -3    3    4    1 -0.000487694475 -0.000515225653
   -5   -3    3    1    2  0.000119461631  0.000568337537
   -5   -3    3    2    2 -0.000049839548 -0.000068939117
   -5   -3    3    3    2  0.000497741097 -0.000524661208
   -5   -3    3    4    2  0.000816344008 -0.001130555434
   -5   -3    3    1    3  0.000526855047 -0.000004053772
   -5   -3    3    2    3 -0.000412179503 -0.000344468982
   -5   -3    3    3    3 -0.000102298685  0.000285481112
   -5   -3    3    4    3 -0.000129440524  0.000244113631
   -5   -3    3    1    4  0.000397163483 -0.000349155806
   -5   -3    3    2    4  0.000530342407  0.000001227632
   -5   -3    3    3    4  0.000131097985  0.000238794037
   -5   -3    3    4    4 -0.000091316927 -0.000286470429
   -5   -3    4    1    1  0.000033046847  0.000104963439
   -5   -3    4    2    1  0.000044778339 -0.000030536736
   -5   -3    4    3    1 -0.000221390453  0.000638617275
   -5   -3    4    4    1 -0.000296205148 -0.000154970010
   -5   -3    4    1    2 -0.000045566664 -0.000023956241
   -5   -3    4    2    2  0.000032678790 -0.000104858181
   -5   -3    4    3    2  0.000290844786 -0.000155589711
   -5   -3    4    4    2 -0.000224761081 -0.000634816060
   -5   -3    4    1    3 -0.000280658677  0.000128370303
   -5   -3    4    2    3 -0.000375439666 -0.000587302833
   -5   -3    4    3    3  0.000054763540  0.000182122559
   -5   -3    4    4    3  0.000047278731  0.000077862247
   -5   -3    4    1    4  0.000375590413 -0.000582205263
   -5   -3    4    2    4 -0.000281413207 -0.000135357433
   -5   -3    4    3    4 -0.000048387541  0.000079822487
   -5   -3    4    4    4  0.000050526384 -0.000182009897
   -5   -3    5    1    1  0.000098973112 -0.000107867700
   -5   -3    5    2    1 -0.000054190658  0.000059345886
   -5   -3    5    3    1 -0.000252953530  0.000333021145
   -5   -3    5    4    1  0.000420066308  0.000197844387
   -5   -3    5    1    2  0.000053951948  0.000064556335
   -5   -3    5    2    2  0.000099453684  0.000109984221
   -5   -3    5    3    2 -0.000418410517  0.000199054594
   -5   -3    5    4    2 -0.000252712963 -0.000337577643
   -5   -3    5    1    3  0.000516245363  0.000399994833
   -5   -3    5    2    3 -0.000321658700 -0.000274037889
   -5   -3    5    3    3 -0.000104687805  0.000382241476
   -5   -3    5    4    3  0.000122000910  0.000169681569
   -5   -3    5    1    4  0.000321929586 -0.000284580572
   -5   -3    5    2    4  0.000525417715 -0.000392716036
   -5   -3    5    3    4 -0.000126578113  0.000174759053
   -5   -3    5    4    4 -0.000092995084 -0.000384367695
   -5   -2   -5    1    1  0.000181408898  0.000109520695
   -5   -2   -5    2    1  0.000094269882 -0.000130631197
   -5   -2   -5    3    1  0.000182407452 -0.000122908332
   -5   -2   -5    4    1 -0.000063238034  0.000110522584
   -5   -2   -5    1    2 -0.000091362801 -0.000130725807
   -5   -2   -5    2    2  0.000185522062 -0.000107639075
   -5   -2   -5    3    2  0.000062576462  0.000108575784
   -5   -2   -5    4    2  0.000184848594  0.000121569281
   -5   -2   -5    1    3 -0.000347326640 -0.000451658586
   -5   -2   -5    2    3 -0.000589124190  0.000469511728
   -5   -2   -5    3    3 -0.000182082111 -0.000155428755
   -5   -2   -5    4    3 -0.000277646117 -0.000112124597
   -5   -2   -5    1    4  0.000592143354  0.000467770093
   -5   -2   -5    2    4 -0.000351032950  0.000452201748
   -5   -2   -5    3    4  0.000273864794 -0.000117850573
   -5   -2   -5    4    4 -0.000183972287  0.000153778330
   -5   -2   -4    1    1  0.000009805324 -0.000244720165
   -5   -2   -4    2    1  0.000180048654  0.000010552618
   -5   -2   -4    3    1 -0.000236098099 -0.000092662082
   -5   -2   -4    4    1 -0.000220619365  0.000204096308
   -5   -2   -4    1    2 -0.000177546845  0.000010293354
   -5   -2   -4    2    2  0.000013619312  0.000245646853
   -5   -2   -4    3    2  0.000217994086  0.000205984383
   -5   -2   -4    4    2 -0.000227869075  0.000095693269
   -5   -2   -4    1    3  0.000036582834 -0.000522899085
   -5   -2   -4    2    3  0.000426971214 -0.000183509869
   -5   -2   -4    3    3  0.000077719907 -0.000687437471
   -5   -2   -4    4    3  0.000193183112  0.000321777229
   -5   -2   -4    1    4 -0.000427532317 -0.000190599180
   -5   -2   -4    2    4  0.000042855100  0.000524161129
   -5   -2   -4    3    4 -0.000199794558  0.000324039941
   -5   -2   -4    4    4  0.000081529574  0.000687056373
   -5   -2   -3    1    1  0.000158051687 -0.000552420032
   -5   -2   -3    2    1  0.000730017131 -0.000040428643
   -5   -2   -3    3    1 -0.000384821245 -0.000095026094
   -5   -2   -3    4    1  0.000201114475  0.000794181252
   -5   -2   -3    1    2 -0.000729273893 -0.000040308671
   -5   -2   -3    2    2  0.000156376101  0.000551110221
   -5   -2   -3    3    2 -0.000193069395  0.000794311745
   -5   -2   -3    4    2 -0.000380911119  0.000106098599
   -5   -2   -3    1    3  0.000569948717 -0.000549357767
   -5   -2   -3    2    3 -0.000777178478 -0.000107479327
   -5   -2   -3    3    3 -0.000258822671 -0.001459950621
   -5   -2   -3    4    3 -0.000397085240  0.000076400021
   -5   -2   -3    1    4  0.000767707860 -0.000113266368
   -5   -2   -3    2    4  0.000563880742  0.000539558652
   -5   -2   -3    3    4  0.000397757167  0.000088471389
   -5   -2   -3    4    4 -0.000241409681  0.001460507400
   -5   -2   -2    1    1  0.000236623550 -0.000172958822
   -5   -2   -2    2    1  0.000231844968 -0.000260143927
   -5   -2   -2    3    1 -0.000260344321 -0.000008311171
   -5   -2   -2    4    1  0.000729040323  0.000773915651
   -5   -2   -2    1    2 -0.000236950409 -0.000282978095
   -5   -2   -2    2    2  0.000226310710  0.000168893396
   -5   -2   -2    3    2 -0.000708489104  0.000776290640
   -5   -2   -2    4    2 -0.000252389130  0.000003419386
   -5   -2   -2    1    3 -0.000784926267 -0.000525461018
   -5   -2   -2    2    3  0.000539613209  0.001208371467
   -5   -2   -2    3    3 -0.000361971285 -0.002338758622
   -5   -2   -2    4    3 -0.000458431128  0.000115356174
   -5   -2   -2    1    4 -0.000566891701  0.001206642116
   -5   -2   -2    2    4 -0.000771718648  0.000510322237
   -5   -2   -2    3    4  0.000440268808  0.000125574351
   -5   -2   -2    4    4 -0.000357034527  0.002343283267
   -5   -2   -1    1    1  0.000986087269 -0.000397411353
   -5   -2   -1    2    1 -0.001153727756  0.000080447646
   -5   -2   -1    3    1  0.000490306774  0.000407943380
   -5   -2   -1    4    1  0.001051005187  0.000023109812
   -5   -2   -1    1    2  0.001126342935  0.000039972878
   -5   -2   -1    2    2  0.000982614547  0.000419929444
   -5   -2   -1    3    2 -0.001031354711  0.000045525260
   -5   -2   -1    4    2  0.000474779041 -0.000361833384
   -5   -2   -1    1    3 -0.000143247062 -0.000288146358
   -5   -2   -1    2    3  0.000832744243  0.001541974162
   -5   -2   -1    3    3 -0.000181693733 -0.001748321737
   -5   -2   -1    4    3  0.001805917767 -0.000149127512
   -5   -2   -1    1    4 -0.000853205179  0.001527692182
   -5   -2   -1    2    4 -0.000105902825  0.000245640053
   -5   -2   -1    3    4 -0.001807618043 -0.000117169892
   -5   -2   -1    4    4 -0.000185261276  0.001739227336
   -5   -2    0    1    1 -0.000151670743  0.000510956592
   -5   -2    0    2    1 -0.001867753634  0.001570174630
   -5   -2    0    3    1 -0.000258658232 -0.000386704337
   -5   -2    0    4    1  0.000323227992  0.000724954388
   -5   -2    0    1    2  0.001876457801  0.001526407245
   -5   -2    0    2    2 -0.000126878132 -0.000497284228
   -5   -2    0    3    2 -0.000329717708  0.000756176943
   -5   -2    0    4    2 -0.000257072847  0.000397808749
   -5   -2    0    1    3 -0.003150032902  0.002915377579
   -5   -2    0    2    3 -0.001117029064  0.001225195889
   -5   -2    0    3    3 -0.000782914466 -0.000578657050
   -5   -2    0    4    3 -0.001327473988 -0.000460704807
   -5   -2    0    1    4  0.001153145183  0.001258627601
   -5   -2    0    2    4 -0.003152447373 -0.002878361714
   -5   -2    0    3    4  0.001250490691 -0.000436965719
   -5   -2    0    4    4 -0.000782043390  0.000582890653
   -5   -2    1    1    1  0.000871681942 -0.000549677818
   -5   -2    1    2    1 -0.001520879449 -0.001325128426
   -5   -2    1    3    1 -0.000768604289  0.001929387151
   -5   -2    1    4    1  0.000521681500  0.002494397583
   -5   -2    1    1    2  0.001498358062 -0.001340897069
   -5   -2    1    2    2  0.000856618130  0.000537538085
   -5   -2    1    3    2 -0.000507345393  0.002493446695
   -5   -2    1    4    2 -0.000767763656 -0.001947594993
   -5   -2    1    1    3  0.000763259993  0.002622571791
   -5   -2    1    2    3  0.000209371058  0.000694069740
   -5   -2    1    3    3 -0.000169302582 -0.003299253552
   -5   -2    1    4    3 -0.001797423651  0.001005277943
   -5   -2    1    1    4 -0.000246523268  0.000730173622
   -5   -2    1    2    4  0.000769788224 -0.002629555005
   -5   -2    1    3    4  0.001758144817  0.000992050648
   -5   -2    1    4    4 -0.000190230493  0.003304305433
   -5   -2    2    1    1  0.000383838014  0.000705238455
   -5   -2    2    2    1  0.000207432144  0.000415458926
   -5   -2    2    3    1  0.001025907646 -0.000072874401
   -5   -2    2    4    1  0.002235913412  0.001216353068
   -5   -2    2    1    2 -0.000208502197  0.000407834302
   -5   -2    2    2    2  0.000379131489 -0.000697467797
   -5   -2    2    3    2 -0.002211740296  0.001228764259
   -5   -2    2    4    2  0.001022901780  0.000033391641
   -5   -2    2    1    3  0.000737051152  0.000893891845
   -5   -2    2    2    3  0.000003111566 -0.000159528416
   -5   -2    2    3    3 -0.000318399719  0.000684892518
   -5   -2    2    4    3 -0.000896607679  0.000003565036
   -5   -2    2    1    4 -0.000008603420 -0.000139421225
   -5   -2    2    2    4  0.000758719546 -0.000885908330
   -5   -2    2    3    4  0.000860631854  0.000012561561
   -5   -2    2    4    4 -0.000345794828 -0.000688712334
   -5   -2    3    1    1 -0.000112900637  0.000333221067
   -5   -2    3    2    1 -0.000151680864  0.000233058153
   -5   -2    3    3    1 -0.000261323863 -0.000097916972
   -5   -2    3    4    1  0.000751748554  0.000019427876
   -5   -2    3    1    2  0.000157286706  0.000226190303
   -5   -2    3    2    2 -0.000109101849 -0.000329329503
   -5   -2    3    3    2 -0.000756283836  0.000032177801
   -5   -2    3    4    2 -0.000254294147  0.000095683520
   -5   -2    3    1    3  0.000126017864  0.000043753552
   -5   -2    3    2    3  0.000258722009  0.000615643165
   -5   -2    3    3    3 -0.000029285306 -0.000372709632
   -5   -2    3    4    3 -0.000607490057 -0.000037339783
   -5   -2    3    1    4 -0.000247195038  0.000622822279
   -5   -2    3    2    4  0.000128607007 -0.000053495065
   -5   -2    3    3    4  0.000600399259 -0.000033174496
   -5   -2    3    4    4 -0.000035910009  0.000366308144
   -5   -2    4    1    1  0.000165974589  0.000005857359
   -5   -2    4    2    1 -0.000100526538  0.000070430937
   -5   -2    4    3    1 -0.000073435074  0.000101707905
   -5   -2    4    4    1  0.000373976809  0.000590658811
   -5   -2    4    1    2  0.000103154521  0.000069758001
   -5   -2    4    2    2  0.000166008119 -0.000005774889
   -5   -2    4    3    2 -0.000382306261  0.000590918765
   -5   -2    4    4    2 -0.000068148871 -0.000101611995
   -5   -2    4    1    3 -0.000326266876 -0.000941093556
   -5   -2    4    2    3  0.000671756771 -0.000360464554
   -5   -2    4    3    3 -0.000081483612  0.000160106667
   -5   -2    4    4    3  0.000250485919 -0.000071635745
   -5   -2    4    1    4 -0.000666839259 -0.000356047283
   -5   -2    4    2    4 -0.000321483401  0.000938282663
   -5   -2    4    3    4 -0.000249635041 -0.000067524487
   -5   -2    4    4    4 -0.000079493901 -0.000159109421
   -5   -2    5    1    1  0.000181408898  0.000109520695
   -5   -2    5    2    1  0.000094269882 -0.000130631197
   -5   -2    5    3    1  0.000182407452 -0.000122908332
   -5   -2    5    4    1 -0.000063238034  0.000110522584
   -5   -2    5    1    2 -0.000091362801 -0.000130725807
   -5   -2    5    2    2  0.000185522062 -0.000107639075
   -5   -2    5    3    2  0.000062576462  0.000108575784
   -5   -2    5    4    2  0.000184848594  0.000121569281
   -5   -2    5    1    3 -0.000347326640 -0.000451658586
   -5   -2    5    2    3 -0.000589124190  0.000469511728
   -5   -2    5    3    3 -0.000182082111 -0.000155428755
   -5   -2    5    4    3 -0.000277646117 -0.000112124597
   -5   -2    5    1    4  0.000592143354  0.000467770093
   -5   -2    5    2    4 -0.000351032950  0.000452201748
   -5   -2    5    3    4  0.000273864794 -0.000117850573
   -5   -2    5    4    4 -0.000183972287  0.000153778330
   -5   -1   -5    1    1 -0.000160424352  0.000072856682
   -5   -1   -5    2    1  0.000076952509  0.000032499946
   -5   -1   -5    3    1 -0.000104330258 -0.000424724930
   -5   -1   -5    4    1  0.000052300810  0.000599162493
   -5   -1   -5    1    2 -0.000079347055  0.000036656602
   -5   -1   -5    2    2 -0.000165491228 -0.000077018763
   -5   -1   -5    3    2 -0.000041471180  0.000594344503
   -5   -1   -5    4    2 -0.000106563527  0.000418479253
   -5   -1   -5    1    3  0.000042259095 -0.000154722071
   -5   -1   -5    2    3  0.000013390130 -0.000108534958
   -5   -1   -5    3    3  0.000148195335 -0.000473435411
   -5   -1   -5    4    3  0.000472971214  0.000302189415
   -5   -1   -5    1    4 -0.000016060519 -0.000109035988
   -5   -1   -5    2    4  0.000046770220  0.000154484595
   -5   -1   -5    3    4 -0.000474026074  0.000304082572
   -5   -1   -5    4    4  0.000148664439  0.000477805128
   -5   -1   -4    1    1 -0.000003183905  0.000403743595
   -5   -1   -4    2    1  0.000014000306  0.000059338429
   -5   -1   -4    3    1 -0.000492224205 -0.000895007764
   -5   -1   -4    4    1  0.000034538305 -0.000031873605
   -5   -1   -4    1    2 -0.000014488223  0.000060933361
   -5   -1   -4    2    2 -0.000002585632 -0.000401945462
   -5   -1   -4    3    2 -0.000038939592 -0.000034798107
   -5   -1   -4    4    2 -0.000493794895  0.000889689064
   -5   -1   -4    1    3  0.000355187001  0.000147580785
   -5   -1   -4    2    3 -0.000286829878  0.000712415803
   -5   -1   -4    3    3  0.000083943776 -0.000203570377
   -5   -1   -4    4    3  0.000398812829  0.000376368085
   -5   -1   -4    1    4  0.000287982684  0.000719062358
   -5   -1   -4    2    4  0.000356240877 -0.000150886357
   -5   -1   -4    3    4 -0.000395421330  0.000374526925
   -5   -1   -4    4    4  0.000072619169  0.000202231062
   -5   -1   -3    1    1 -0.000091101174  0.000227833679
   -5   -1   -3    2    1 -0.000230584921  0.000184989698
   -5   -1   -3    3    1 -0.000615505020 -0.000592469598
   -5   -1   -3    4    1 -0.000347959683 -0.000697472075
   -5   -1   -3    1    2  0.000224137210  0.000183138070
   -5   -1   -3    2    2 -0.000088996722 -0.000222745477
   -5   -1   -3    3    2  0.000342785265 -0.000680716781
   -5   -1   -3    4    2 -0.000619058913  0.000587766461
   -5   -1   -3    1    3  0.000797447694 -0.000080631807
   -5   -1   -3    2    3 -0.000288110284  0.000300415761
   -5   -1   -3    3    3  0.000085778581  0.000500300827
   -5   -1   -3    4    3  0.000495408613 -0.000242299008
   -5   -1   -3    1    4  0.000287162911  0.000302395266
[...]
    6    3   -5    1    3  0.000198820216 -0.000243095383
    6    3   -5    2    3  0.000152357720  0.000159659594
    6    3   -5    3    3  0.000152768076  0.000006812985
    6    3   -5    4    3 -0.000048155937  0.000653071416
    6    3   -5    1    4 -0.000157487975  0.000165045729
    6    3   -5    2    4  0.000196751634  0.000241048355
    6    3   -5    3    4  0.000049190820  0.000650785094
    6    3   -5    4    4  0.000148833236 -0.000007140695
    6    3   -4    1    1 -0.000129769547 -0.000031946453
    6    3   -4    2    1 -0.000153454416  0.000256003364
    6    3   -4    3    1  0.000506777286 -0.000149846789
    6    3   -4    4    1 -0.000062316576  0.000126269146
    6    3   -4    1    2  0.000152576371  0.000254558186
    6    3   -4    2    2 -0.000128070173  0.000033857849
    6    3   -4    3    2  0.000065648309  0.000130421266
    6    3   -4    4    2  0.000502941321  0.000152023738
    6    3   -4    1    3 -0.000365136272  0.000190562958
    6    3   -4    2    3 -0.000231173868  0.000267568863
    6    3   -4    3    3  0.000043585055  0.000053113225
    6    3   -4    4    3 -0.000128817270 -0.000011220203
    6    3   -4    1    4  0.000248218944  0.000272450812
    6    3   -4    2    4 -0.000363838441 -0.000176011346
    6    3   -4    3    4  0.000128024802 -0.000013160167
    6    3   -4    4    4  0.000038935085 -0.000056400555
    6    3   -3    1    1 -0.000004488794  0.000027891487
    6    3   -3    2    1 -0.000175510985  0.000156979786
    6    3   -3    3    1 -0.000468968304  0.000086448208
    6    3   -3    4    1  0.000001566974  0.000226805093
    6    3   -3    1    2  0.000178672596  0.000162880714
    6    3   -3    2    2 -0.000001557154 -0.000016527169
    6    3   -3    3    2 -0.000020216785  0.000234873839
    6    3   -3    4    2 -0.000465915823 -0.000088002669
    6    3   -3    1    3 -0.000056312438 -0.000278779599
    6    3   -3    2    3  0.000863474087  0.000318907791
    6    3   -3    3    3 -0.000107678906  0.000218108394
    6    3   -3    4    3 -0.000549723826  0.000510929713
    6    3   -3    1    4 -0.000844074645  0.000318353370
    6    3   -3    2    4 -0.000054730729  0.000279646280
    6    3   -3    3    4  0.000549782223  0.000510996685
    6    3   -3    4    4 -0.000094886140 -0.000229048137
    6    3   -2    1    1 -0.000739547729 -0.000272151391
    6    3   -2    2    1 -0.000579203641 -0.000343802658
    6    3   -2    3    1 -0.001323543441  0.001545169945
    6    3   -2    4    1 -0.000092624044  0.001231901196
    6    3   -2    1    2  0.000591086648 -0.000334227607
    6    3   -2    2    2 -0.000717387826  0.000272314625
    6    3   -2    3    2  0.000059291301  0.001231521665
    6    3   -2    4    2 -0.001328618525 -0.001534677520
    6    3   -2    1    3  0.000216153227  0.000092585297
    6    3   -2    2    3  0.000688680697  0.001159319739
    6    3   -2    3    3  0.000357615562 -0.000520303984
    6    3   -2    4    3 -0.001133816617  0.000528496503
    6    3   -2    1    4 -0.000680958548  0.001161840674
    6    3   -2    2    4  0.000216443689 -0.000109252769
    6    3   -2    3    4  0.001136145112  0.000517656351
    6    3   -2    4    4  0.000403112418  0.000523958969
    6    3   -1    1    1  0.000208568098  0.000425983381
    6    3   -1    2    1  0.000472148878 -0.000093638231
    6    3   -1    3    1  0.001806297538  0.001394278433
    6    3   -1    4    1 -0.000624355064 -0.000707203142
    6    3   -1    1    2 -0.000475945694 -0.000082391438
    6    3   -1    2    2  0.000222892082 -0.000426800650
    6    3   -1    3    2  0.000577765783 -0.000743922012
    6    3   -1    4    2  0.001811028821 -0.001395675871
    6    3   -1    1    3 -0.000807946001 -0.001781884144
    6    3   -1    2    3  0.000388791312  0.000265764953
    6    3   -1    3    3  0.000146779366  0.000879589805
    6    3   -1    4    3 -0.000374484368 -0.000059117734
    6    3   -1    1    4 -0.000396380772  0.000255271927
    6    3   -1    2    4 -0.000808984276  0.001767754732
    6    3   -1    3    4  0.000409499595 -0.000058325489
    6    3   -1    4    4  0.000159618331 -0.000872681768
    6    3    0    1    1 -0.000156318721 -0.000341801304
    6    3    0    2    1 -0.000659957625 -0.000695483280
    6    3    0    3    1 -0.002335636738  0.001551123711
    6    3    0    4    1  0.001195638308  0.000443264140
    6    3    0    1    2  0.000677964236 -0.000690451234
    6    3    0    2    2 -0.000139533943  0.000361964744
    6    3    0    3    2 -0.001211415922  0.000451919793
    6    3    0    4    2 -0.002355770869 -0.001541016690
    6    3    0    1    3  0.001562848931 -0.000671666203
    6    3    0    2    3  0.002011731484  0.000473179779
    6    3    0    3    3 -0.000477675865 -0.000451608232
    6    3    0    4    3  0.000844913364  0.000847460953
    6    3    0    1    4 -0.002009310446  0.000467030653
    6    3    0    2    4  0.001555162749  0.000677206034
    6    3    0    3    4 -0.000846156005  0.000849588331
    6    3    0    4    4 -0.000450910133  0.000425018178
    6    3    1    1    1  0.000186459762 -0.000182369643
    6    3    1    2    1  0.000297199357 -0.001403460531
    6    3    1    3    1  0.000052325107 -0.000300999993
    6    3    1    4    1 -0.000391416025  0.002367975031
    6    3    1    1    2 -0.000276698639 -0.001412750500
    6    3    1    2    2  0.000199578658  0.000188568760
    6    3    1    3    2  0.000351824486  0.002377720679
    6    3    1    4    2  0.000071544722  0.000302000168
    6    3    1    1    3  0.000419830202 -0.000167517318
    6    3    1    2    3  0.001322502481 -0.000371769554
    6    3    1    3    3  0.000382127387  0.000265657962
    6    3    1    4    3 -0.000955693675  0.000023471363
    6    3    1    1    4 -0.001315513717 -0.000370632642
    6    3    1    2    4  0.000386006827  0.000171668469
    6    3    1    3    4  0.000968769310  0.000042385164
    6    3    1    4    4  0.000411429335 -0.000275724647
    6    3    2    1    1 -0.000089351328  0.000138527665
    6    3    2    2    1  0.000096419444 -0.000663848798
    6    3    2    3    1 -0.001483410890 -0.000319529172
    6    3    2    4    1 -0.000529819556 -0.001155813815
    6    3    2    1    2 -0.000078423499 -0.000658035215
    6    3    2    2    2 -0.000082903523 -0.000150447785
    6    3    2    3    2  0.000525390017 -0.001126099149
    6    3    2    4    2 -0.001488198764  0.000325611940
    6    3    2    1    3  0.000428558580 -0.000234644501
    6    3    2    2    3  0.001400018083 -0.000008067135
    6    3    2    3    3 -0.000230160608  0.000501387360
    6    3    2    4    3 -0.000262697205 -0.000761972242
    6    3    2    1    4 -0.001403086768 -0.000011465291
    6    3    2    2    4  0.000411908875  0.000242701244
    6    3    2    3    4  0.000285962047 -0.000772025150
    6    3    2    4    4 -0.000218625355 -0.000495943056
    6    3    3    1    1 -0.000275272198  0.000094970755
    6    3    3    2    1 -0.000076262397 -0.000579311199
    6    3    3    3    1 -0.000797969058 -0.000576088256
    6    3    3    4    1 -0.000702957875  0.000301881700
    6    3    3    1    2  0.000078109063 -0.000579078277
    6    3    3    2    2 -0.000272198831 -0.000097288135
    6    3    3    3    2  0.000703941015  0.000323488334
    6    3    3    4    2 -0.000798155175  0.000572433373
    6    3    3    1    3  0.000859254160 -0.000003117881
    6    3    3    2    3 -0.000212916362 -0.000213564763
    6    3    3    3    3 -0.000086131460  0.000191189531
    6    3    3    4    3 -0.000251863548 -0.000130134274
    6    3    3    1    4  0.000225323380 -0.000215850673
    6    3    3    2    4  0.000849649832  0.000015504134
    6    3    3    3    4  0.000269697812 -0.000135130240
    6    3    3    4    4 -0.000091397796 -0.000187403742
    6    3    4    1    1 -0.000163336957  0.000156847170
    6    3    4    2    1  0.000096236589 -0.000212820829
    6    3    4    3    1 -0.000553362235 -0.000483475279
    6    3    4    4    1 -0.000040088386 -0.000394236525
    6    3    4    1    2 -0.000094552884 -0.000213477114
    6    3    4    2    2 -0.000167195975 -0.000151995348
    6    3    4    3    2  0.000041657961 -0.000384741655
    6    3    4    4    2 -0.000557296380  0.000486966436
    6    3    4    1    3  0.000163043802 -0.000141139859
    6    3    4    2    3  0.000090468969 -0.000389632259
    6    3    4    3    3  0.000118668886  0.000127589967
    6    3    4    4    3  0.000085388259  0.000195890135
    6    3    4    1    4 -0.000096559054 -0.000396853804
    6    3    4    2    4  0.000165009510  0.000149208547
    6    3    4    3    4 -0.000086359813  0.000193422645
    6    3    4    4    4  0.000111464920 -0.000133581972
    6    3    5    1    1 -0.000203754514 -0.000198991928
    6    3    5    2    1  0.000041217102 -0.000021880472
    6    3    5    3    1  0.000033352599  0.000209557491
    6    3    5    4    1  0.000187996239  0.000276112894
    6    3    5    1    2 -0.000038461062 -0.000019431918
    6    3    5    2    2 -0.000207677041  0.000199042853
    6    3    5    3    2 -0.000189165370  0.000277013493
    6    3    5    4    2  0.000035345589 -0.000205991560
    6    3    5    1    3  0.000198820216 -0.000243095383
    6    3    5    2    3  0.000152357720  0.000159659594
    6    3    5    3    3  0.000152768076  0.000006812985
    6    3    5    4    3 -0.000048155937  0.000653071416
    6    3    5    1    4 -0.000157487975  0.000165045729
    6    3    5    2    4  0.000196751634  0.000241048355
    6    3    5    3    4  0.000049190820  0.000650785094
    6    3    5    4    4  0.000148833236 -0.000007140695
    6    4   -5    1    1 -0.000010366490  0.000229195251
    6    4   -5    2    1 -0.000206686889  0.000073277400
    6    4   -5    3    1 -0.000243428277 -0.000351009272
    6    4   -5    4    1  0.000104540923 -0.000042038388
    6    4   -5    1    2  0.000207561076  0.000066310024
    6    4   -5    2    2 -0.000006770538 -0.000228620560
    6    4   -5    3    2 -0.000108924852 -0.000032204566
    6    4   -5    4    2 -0.000245985802  0.000356687205
    6    4   -5    1    3 -0.000107452636  0.000419509281
    6    4   -5    2    3  0.000538690375  0.000253785868
    6    4   -5    3    3  0.000088754157  0.000062469725
    6    4   -5    4    3 -0.000114060522 -0.000125399515
    6    4   -5    1    4 -0.000539145705  0.000256240767
    6    4   -5    2    4 -0.000103499525 -0.000424149159
    6    4   -5    3    4  0.000115896856 -0.000116721462
    6    4   -5    4    4  0.000085960771 -0.000063118784
    6    4   -4    1    1  0.000138596620  0.000042158407
    6    4   -4    2    1  0.000011525877 -0.000081392741
    6    4   -4    3    1  0.000305720405 -0.000034332102
    6    4   -4    4    1 -0.000163158697 -0.000181976929
    6    4   -4    1    2 -0.000012973724 -0.000077865897
    6    4   -4    2    2  0.000140776589 -0.000041266851
    6    4   -4    3    2  0.000168451384 -0.000199584284
    6    4   -4    4    2  0.000295112452  0.000029092262
    6    4   -4    1    3 -0.000487450394  0.000318573511
    6    4   -4    2    3 -0.000221219570 -0.000273056717
    6    4   -4    3    3 -0.000214985078 -0.000140555448
    6    4   -4    4    3 -0.000281776342 -0.000113212414
    6    4   -4    1    4  0.000220842220 -0.000267555045
    6    4   -4    2    4 -0.000486373498 -0.000322224583
    6    4   -4    3    4  0.000284471534 -0.000114026320
    6    4   -4    4    4 -0.000215639949  0.000140290994
    6    4   -3    1    1 -0.000227817115 -0.000029155311
    6    4   -3    2    1 -0.001019582858 -0.000088827719
    6    4   -3    3    1 -0.000775169717 -0.000211865115
    6    4   -3    4    1  0.000361665724 -0.000549175269
    6    4   -3    1    2  0.001020524646 -0.000091388279
    6    4   -3    2    2 -0.000221922617  0.000023887714
    6    4   -3    3    2 -0.000368497606 -0.000541989436
    6    4   -3    4    2 -0.000771232783  0.000204868192
    6    4   -3    1    3  0.000695201486  0.001298962333
    6    4   -3    2    3 -0.000022621971  0.000663782097
    6    4   -3    3    3  0.000237592703 -0.000416195054
    6    4   -3    4    3 -0.000264985127 -0.000009982546
    6    4   -3    1    4  0.000011771573  0.000656092710
    6    4   -3    2    4  0.000704336155 -0.001300262152
    6    4   -3    3    4  0.000262020209 -0.000012318794
    6    4   -3    4    4  0.000226542639  0.000422802695
    6    4   -2    1    1 -0.000218658399  0.000275950977
    6    4   -2    2    1  0.000101681520  0.000573096176
    6    4   -2    3    1 -0.000378423104 -0.001128582397
    6    4   -2    4    1 -0.000243601302 -0.000733288631
    6    4   -2    1    2 -0.000108117293  0.000564193902
    6    4   -2    2    2 -0.000210694734 -0.000296855686
    6    4   -2    3    2  0.000239709888 -0.000744213475
    6    4   -2    4    2 -0.000385952203  0.001142562108
    6    4   -2    1    3  0.001382984646  0.001717127799
    6    4   -2    2    3 -0.002566470185  0.000149284085
    6    4   -2    3    3  0.000072555328  0.000418469884
    6    4   -2    4    3 -0.000624112557  0.000111868602
    6    4   -2    1    4  0.002580372881  0.000145614959
    6    4   -2    2    4  0.001359513120 -0.001709751487
    6    4   -2    3    4  0.000614797287  0.000111640965
    6    4   -2    4    4  0.000056573137 -0.000401342755
    6    4   -1    1    1 -0.000700104561 -0.000547721895
    6    4   -1    2    1 -0.001305002404  0.000301044635
    6    4   -1    3    1  0.002012305745  0.000119646902
    6    4   -1    4    1  0.001448925790 -0.000302373047
    6    4   -1    1    2  0.001318121941  0.000289528100
    6    4   -1    2    2 -0.000700924188  0.000519787984
    6    4   -1    3    2 -0.001422846045 -0.000324931549
    6    4   -1    4    2  0.002032710416 -0.000143322347
    6    4   -1    1    3 -0.001272450128  0.002055205903
    6    4   -1    2    3  0.000622338243 -0.000790431848
    6    4   -1    3    3  0.000741003432  0.001096267026
    6    4   -1    4    3  0.000353298601  0.001548778736
    6    4   -1    1    4 -0.000626672247 -0.000815914817
    6    4   -1    2    4 -0.001248680969 -0.002019993836
    6    4   -1    3    4 -0.000377814636  0.001498011834
    6    4   -1    4    4  0.000763969287 -0.001073286967
    6    4    0    1    1 -0.000509130557 -0.000421560545
    6    4    0    2    1 -0.002326297752  0.002371713112
    6    4    0    3    1 -0.000215473845  0.000662622875
    6    4    0    4    1 -0.000017392092 -0.001097782669
    6    4    0    1    2  0.002305648589  0.002369207623
    6    4    0    2    2 -0.000494728592  0.000395433474
    6    4    0    3    2  0.000013862706 -0.001127242589
    6    4    0    4    2 -0.000228317154 -0.000689682899
    6    4    0    1    3 -0.000033665543  0.001537398121
    6    4    0    2    3  0.000527708705 -0.001077863335
    6    4    0    3    3 -0.000369846244  0.000181650058
    6    4    0    4    3  0.001259754850  0.000816245189
    6    4    0    1    4 -0.000480918715 -0.001096367518
    6    4    0    2    4 -0.000030427262 -0.001576719056
    6    4    0    3    4 -0.001237685158  0.000801047700
    6    4    0    4    4 -0.000369618753 -0.000171580829
    6    4    1    1    1  0.000745100021  0.000346622121
    6    4    1    2    1 -0.001547462495  0.001069623767
    6    4    1    3    1 -0.000466379674 -0.000260758145
    6    4    1    4    1 -0.000219365625 -0.000654304926
    6    4    1    1    2  0.001552671505  0.001072564483
    6    4    1    2    2  0.000735781956 -0.000351484985
    6    4    1    3    2  0.000231320755 -0.000647960380
    6    4    1    4    2 -0.000481052319  0.000242063475
    6    4    1    1    3 -0.001574224011  0.000087010630
    6    4    1    2    3  0.000747080339 -0.000429952758
    6    4    1    3    3  0.000237131420  0.000107047973
    6    4    1    4    3  0.000177735151 -0.000024557270
    6    4    1    1    4 -0.000688845523 -0.000416837734
    6    4    1    2    4 -0.001584805689 -0.000063103777
    6    4    1    3    4 -0.000180890047 -0.000065687937
    6    4    1    4    4  0.000195325180 -0.000098429334
    6    4    2    1    1  0.000165830239 -0.000396947506
    6    4    2    2    1 -0.000933662494  0.000394365048
    6    4    2    3    1  0.000438511881  0.001210001834
    6    4    2    4    1  0.000837975379 -0.000317148810
    6    4    2    1    2  0.000929872013  0.000378605725
    6    4    2    2    2  0.000148972904  0.000393118790
    6    4    2    3    2 -0.000840665527 -0.000346529150
    6    4    2    4    2  0.000460661173 -0.001214416342
    6    4    2    1    3 -0.000952091400  0.000515894811
    6    4    2    2    3 -0.000210838831  0.001058733037
    6    4    2    3    3  0.000013094508 -0.000806160790
    6    4    2    4    3 -0.000750239338  0.000691972541
    6    4    2    1    4  0.000212345680  0.001060887256
    6    4    2    2    4 -0.000947698472 -0.000518437133
    6    4    2    3    4  0.000722957304  0.000673616381
    6    4    2    4    4  0.000004643432  0.000806551085
    6    4    3    1    1 -0.000054684229  0.000100780419
    6    4    3    2    1 -0.000112663028  0.000402335342
    6    4    3    3    1 -0.000981101362  0.000465742685
    6    4    3    4    1  0.000825579983  0.000109121890
    6    4    3    1    2  0.000115751673  0.000400676069
    6    4    3    2    2 -0.000053338098 -0.000098604179
    6    4    3    3    2 -0.000826361897  0.000097432864
    6    4    3    4    2 -0.000977831215 -0.000468896125
    6    4    3    1    3 -0.000616766704  0.000589452298
    6    4    3    2    3 -0.000772899359 -0.000045194717
    6    4    3    3    3  0.000161303766 -0.000006551508
    6    4    3    4    3 -0.000882762306  0.000024138255
    6    4    3    1    4  0.000765853290 -0.000048409723
    6    4    3    2    4 -0.000617153489 -0.000590367148
    6    4    3    3    4  0.000858008794  0.000024311116
    6    4    3    4    4  0.000148108257  0.000004444964
    6    4    4    1    1  0.000242610273 -0.000117822641
    6    4    4    2    1 -0.000411147697  0.000086174019
    6    4    4    3    1  0.000163797358  0.000350871543
    6    4    4    4    1  0.000698649273  0.000256091529
    6    4    4    1    2  0.000413723977  0.000083719830
    6    4    4    2    2  0.000243775432  0.000122097959
    6    4    4    3    2 -0.000704603979  0.000250835106
    6    4    4    4    2  0.000175537333 -0.000349272558
    6    4    4    1    3 -0.000492181110  0.000890975238
    6    4    4    2    3 -0.000012391659 -0.000052376413
    6    4    4    3    3 -0.000229975275 -0.000291765649
    6    4    4    4    3 -0.000761553697 -0.000155327379
    6    4    4    1    4  0.000011753940 -0.000048354592
    6    4    4    2    4 -0.000496027783 -0.000893433142
    6    4    4    3    4  0.000758046667 -0.000145845888
    6    4    4    4    4 -0.000230820359  0.000287394510
    6    4    5    1    1 -0.000010366490  0.000229195251
    6    4    5    2    1 -0.000206686889  0.000073277400
    6    4    5    3    1 -0.000243428277 -0.000351009272
    6    4    5    4    1  0.000104540923 -0.000042038388
    6    4    5    1    2  0.000207561076  0.000066310024
    6    4    5    2    2 -0.000006770538 -0.000228620560
    6    4    5    3    2 -0.000108924852 -0.000032204566
    6    4    5    4    2 -0.000245985802  0.000356687205
    6    4    5    1    3 -0.000107452636  0.000419509281
    6    4    5    2    3  0.000538690375  0.000253785868
    6    4    5    3    3  0.000088754157  0.000062469725
    6    4    5    4    3 -0.000114060522 -0.000125399515
    6    4    5    1    4 -0.000539145705  0.000256240767
    6    4    5    2    4 -0.000103499525 -0.000424149159
    6    4    5    3    4  0.000115896856 -0.000116721462
    6    4    5    4    4  0.000085960771 -0.000063118784
