 written on  5Nov2024 at 13:56:48 
           4
        1133
    2    1    1    1    1    1    1    1    1    1    2    2    1    1    1
    1    1    1    1    1    1    2    4    2    2    2    2    2    2    2
    2    2    4    2    1    1    1    1    1    1    1    1    1    2    2
    1    1    1    1    1    1    1    1    1    2    2    1    1    1    1
    1    1    1    1    1    2    2    1    1    1    1    1    1    1    1
    1    2    4    2    2    2    2    2    2    2    2    2    4    2    1
    1    1    1    1    1    1    1    1    2    2    1    1    1    1    1
    1    1    1    1    2    2    1    1    1    1    1    1    1    1    1
    2    2    1    1    1    1    1    1    1    1    1    2    2    1    1
    1    1    1    1    1    1    1    2    2    1    1    1    1    1    1
    1    1    1    2    2    1    1    1    1    1    1    1    1    1    2
    2    1    1    1    1    1    1    1    1    1    2    2    1    1    1
    1    1    1    1    1    1    2    2    1    1    1    1    1    1    1
    1    1    2    2    1    1    1    1    1    1    1    1    1    2    2
    1    1    1    1    1    1    1    1    1    2    2    1    1    1    1
    1    1    1    1    1    2    2    1    1    1    1    1    1    1    1
    1    2    2    1    1    1    1    1    1    1    1    1    2    2    1
    1    1    1    1    1    1    1    1    2    2    1    1    1    1    1
    1    1    1    1    2    2    1    1    1    1    1    1    1    1    1
    2    2    1    1    1    1    1    1    1    1    1    2    2    1    1
    1    1    1    1    1    1    1    2    2    1    1    1    1    1    1
    1    1    1    2    2    1    1    1    1    1    1    1    1    1    2
    2    1    1    1    1    1    1    1    1    1    2    2    1    1    1
    1    1    1    1    1    1    2    2    1    1    1    1    1    1    1
    1    1    2    2    1    1    1    1    1    1    1    1    1    2    2
    1    1    1    1    1    1    1    1    1    2    2    1    1    1    1
    1    1    1    1    1    2    2    1    1    1    1    1    1    1    1
    1    2    2    1    1    1    1    1    1    1    1    1    2    2    1
    1    1    1    1    1    1    1    1    2    2    1    1    1    1    1
    1    1    1    1    2    2    1    1    1    1    1    1    1    1    1
    2    2    1    1    1    1    1    1    1    1    1    2    2    1    1
    1    1    1    1    1    1    1    2    2    1    1    1    1    1    1
    1    1    1    2    2    1    1    1    1    1    1    1    1    1    2
    2    1    1    1    1    1    1    1    1    1    2    4    2    2    2
    2    2    2    2    2    2    4    2    1    1    1    1    1    1    1
    1    1    2    2    1    1    1    1    1    1    1    1    1    2    2
    1    1    1    1    1    1    1    1    1    2    2    1    1    1    1
    1    1    1    1    1    2    2    1    1    1    1    1    1    1    1
    1    2    2    1    1    1    1    1    1    1    1    1    2    2    1
    1    1    1    1    1    1    1    1    2    2    1    1    1    1    1
    1    1    1    1    2    2    1    1    1    1    1    1    1    1    1
    2    4    2    2    2    2    2    2    2    2    2    4    2    1    1
    1    1    1    1    1    1    1    2    2    1    1    1    1    1    1
    1    1    1    2    2    1    1    1    1    1    1    1    1    1    2
    2    1    1    1    1    1    1    1    1    1    2    2    1    1    1
    1    1    1    1    1    1    2    2    1    1    1    1    1    1    1
    1    1    2    2    1    1    1    1    1    1    1    1    1    2    2
    1    1    1    1    1    1    1    1    1    2    2    1    1    1    1
    1    1    1    1    1    2    2    1    1    1    1    1    1    1    1
    1    2    2    1    1    1    1    1    1    1    1    1    2    2    1
    1    1    1    1    1    1    1    1    2    2    1    1    1    1    1
    1    1    1    1    2    2    1    1    1    1    1    1    1    1    1
    2    2    1    1    1    1    1    1    1    1    1    2    2    1    1
    1    1    1    1    1    1    1    2    2    1    1    1    1    1    1
    1    1    1    2    2    1    1    1    1    1    1    1    1    1    2
    2    1    1    1    1    1    1    1    1    1    2    2    1    1    1
    1    1    1    1    1    1    2    2    1    1    1    1    1    1    1
    1    1    2    2    1    1    1    1    1    1    1    1    1    2    2
    1    1    1    1    1    1    1    1    1    2    2    1    1    1    1
    1    1    1    1    1    2    2    1    1    1    1    1    1    1    1
    1    2    2    1    1    1    1    1    1    1    1    1    2    2    1
    1    1    1    1    1    1    1    1    2    2    1    1    1    1    1
    1    1    1    1    2    2    1    1    1    1    1    1    1    1    1
    2    2    1    1    1    1    1    1    1    1    1    2    2    1    1
    1    1    1    1    1    1    1    2    2    1    1    1    1    1    1
    1    1    1    2    2    1    1    1    1    1    1    1    1    1    2
    2    1    1    1    1    1    1    1    1    1    2    2    1    1    1
    1    1    1    1    1    1    2    2    1    1    1    1    1    1    1
    1    1    2    2    1    1    1    1    1    1    1    1    1    2    2
    1    1    1    1    1    1    1    1    1    2    4    2    2    2    2
    2    2    2    2    2    4    2    1    1    1    1    1    1    1    1
    1    2    2    1    1    1    1    1    1    1    1    1    2    2    1
    1    1    1    1    1    1    1    1    2    2    1    1    1    1    1
    1    1    1    1    2    4    2    2    2    2    2    2    2    2    2
    4    2    1    1    1    1    1    1    1    1    1    2    2    1    1
    1    1    1    1    1    1    1    2
   -6   -3   -5    1    1 -0.000407171072  0.000412699844
   -6   -3   -5    2    1 -0.000326920278  0.000717524248
   -6   -3   -5    3    1 -0.000735678976 -0.000229088063
   -6   -3   -5    4    1  0.000889286439 -0.000502249564
   -6   -3   -5    1    2  0.000327178928  0.000717409386
   -6   -3   -5    2    2 -0.000407315956 -0.000412587967
   -6   -3   -5    3    2 -0.000888909844 -0.000502233011
   -6   -3   -5    4    2 -0.000735407707  0.000229915441
   -6   -3   -5    1    3 -0.000782842312  0.001286848173
   -6   -3   -5    2    3  0.000137506677  0.001539945989
   -6   -3   -5    3    3  0.000356891680 -0.000029472639
   -6   -3   -5    4    3  0.000283611118 -0.000504964423
   -6   -3   -5    1    4 -0.000137738504  0.001540599842
   -6   -3   -5    2    4 -0.000782799840 -0.001286498985
   -6   -3   -5    3    4 -0.000283677914 -0.000504840281
   -6   -3   -5    4    4  0.000356485869  0.000029361200
   -6   -3   -4    1    1  0.000097736628 -0.000445627172
   -6   -3   -4    2    1  0.000109827904 -0.000724418514
   -6   -3   -4    3    1  0.001397159887  0.000215920465
   -6   -3   -4    4    1 -0.001078239506 -0.000080543209
   -6   -3   -4    1    2 -0.000110187452 -0.000724205735
   -6   -3   -4    2    2  0.000098055393  0.000445591999
   -6   -3   -4    3    2  0.001078242447 -0.000080644086
   -6   -3   -4    4    2  0.001398143515 -0.000215515037
   -6   -3   -4    1    3  0.001424833245 -0.000703702653
   -6   -3   -4    2    3  0.001613866051 -0.000588823715
   -6   -3   -4    3    3 -0.000405751888 -0.000796357787
   -6   -3   -4    4    3  0.000515565205  0.000785978744
   -6   -3   -4    1    4 -0.001613374322 -0.000589635074
   -6   -3   -4    2    4  0.001424847486  0.000704505404
   -6   -3   -4    3    4 -0.000515777081  0.000785855732
   -6   -3   -4    4    4 -0.000405352955  0.000796392857
   -6   -3   -3    1    1 -0.000152295327  0.000202348757
   -6   -3   -3    2    1  0.000771780099  0.000013495237
   -6   -3   -3    3    1  0.000283550463 -0.000512918877
   -6   -3   -3    4    1 -0.000606427368 -0.000036346919
   -6   -3   -3    1    2 -0.000771488736  0.000013409633
   -6   -3   -3    2    2 -0.000152773985 -0.000202917842
   -6   -3   -3    3    2  0.000605926786 -0.000035878528
   -6   -3   -3    4    2  0.000283164837  0.000513295064
   -6   -3   -3    1    3 -0.000146593024 -0.001737313671
   -6   -3   -3    2    3  0.000324449680 -0.000499183646
   -6   -3   -3    3    3  0.000154254976 -0.001660174568
   -6   -3   -3    4    3  0.001287432343 -0.001137674083
   -6   -3   -3    1    4 -0.000324820107 -0.000499144946
   -6   -3   -3    2    4 -0.000146875612  0.001737156731
   -6   -3   -3    3    4 -0.001287739141 -0.001137485132
   -6   -3   -3    4    4  0.000154675993  0.001660744173
   -6   -3   -2    1    1 -0.000045121644  0.000338345051
   -6   -3   -2    2    1 -0.000572704894 -0.000459352408
   -6   -3   -2    3    1  0.002723430420  0.000295667405
   -6   -3   -2    4    1 -0.001677200137  0.000797424964
   -6   -3   -2    1    2  0.000573394715 -0.000459138476
   -6   -3   -2    2    2 -0.000045202295 -0.000338429365
   -6   -3   -2    3    2  0.001676833202  0.000796691132
   -6   -3   -2    4    2  0.002723320851 -0.000296076876
   -6   -3   -2    1    3 -0.001039635441 -0.002368213526
   -6   -3   -2    2    3  0.000401956373  0.000591384554
   -6   -3   -2    3    3 -0.000220401559  0.000642214865
   -6   -3   -2    4    3  0.000887756348 -0.003681945041
   -6   -3   -2    1    4 -0.000400966728  0.000591418682
   -6   -3   -2    2    4 -0.001039524337  0.002369447706
   -6   -3   -2    3    4 -0.000888862466 -0.003682499841
   -6   -3   -2    4    4 -0.000220597678 -0.000642130896
   -6   -3   -1    1    1 -0.002132267092  0.000147790882
   -6   -3   -1    2    1  0.000901388371  0.000657948250
   -6   -3   -1    3    1  0.000363018536  0.000050931644
   -6   -3   -1    4    1 -0.003660214229 -0.001333915319
   -6   -3   -1    1    2 -0.000901755912  0.000657810422
   -6   -3   -1    2    2 -0.002131745200 -0.000147328466
   -6   -3   -1    3    2  0.003660248940 -0.001333918295
   -6   -3   -1    4    2  0.000362773200 -0.000051460353
   -6   -3   -1    1    3 -0.000341146030 -0.002370632450
   -6   -3   -1    2    3 -0.000205751257 -0.003830114630
   -6   -3   -1    3    3  0.001054468033 -0.000631218254
   -6   -3   -1    4    3  0.001858644581 -0.002536353231
   -6   -3   -1    1    4  0.000206188846 -0.003829776539
   -6   -3   -1    2    4 -0.000340438863  0.002370984425
   -6   -3   -1    3    4 -0.001858885339 -0.002535555130
   -6   -3   -1    4    4  0.001054437369  0.000630756103
   -6   -3    0    1    1 -0.000777218990 -0.000235871170
   -6   -3    0    2    1  0.000853604069  0.000190620982
   -6   -3    0    3    1  0.001352964449  0.001257746318
   -6   -3    0    4    1 -0.003208996831  0.000462881508
   -6   -3    0    1    2 -0.000854060452  0.000190974893
   -6   -3    0    2    2 -0.000777249808  0.000235437208
   -6   -3    0    3    2  0.003209221016  0.000463464548
   -6   -3    0    4    2  0.001352913944 -0.001258586267
   -6   -3    0    1    3  0.001456116702 -0.001213446397
   -6   -3    0    2    3 -0.001454406931  0.003176641786
   -6   -3    0    3    3 -0.001782011126  0.001035438972
   -6   -3    0    4    3 -0.000383589443 -0.000831509387
   -6   -3    0    1    4  0.001455264728  0.003176527955
   -6   -3    0    2    4  0.001456736834  0.001213790811
   -6   -3    0    3    4  0.000382989300 -0.000831250434
   -6   -3    0    4    4 -0.001781867908 -0.001035004968
   -6   -3    1    1    1 -0.000097953900 -0.000371388185
   -6   -3    1    2    1 -0.000802569137  0.001865843941
   -6   -3    1    3    1 -0.002337954142 -0.000996965523
   -6   -3    1    4    1  0.000518574713  0.001031580457
   -6   -3    1    1    2  0.000802723813  0.001865967882
   -6   -3    1    2    2 -0.000097917428  0.000371728120
   -6   -3    1    3    2 -0.000517957760  0.001031746281
   -6   -3    1    4    2 -0.002337748991  0.000997213412
   -6   -3    1    1    3  0.000916826169 -0.004585995555
   -6   -3    1    2    3  0.000089495864 -0.001442044751
   -6   -3    1    3    3  0.001222204995 -0.001571739950
   -6   -3    1    4    3  0.003169284490 -0.000776613652
   -6   -3    1    1    4 -0.000090334831 -0.001442049457
   -6   -3    1    2    4  0.000916850489  0.004586803927
   -6   -3    1    3    4 -0.003169498665 -0.000776182676
   -6   -3    1    4    4  0.001222506246  0.001571400605
   -6   -3    2    1    1 -0.001713193516 -0.000550210489
   -6   -3    2    2    1  0.001207912919  0.000292399359
   -6   -3    2    3    1  0.001321931322  0.001331607688
   -6   -3    2    4    1 -0.003072804716 -0.000721033395
   -6   -3    2    1    2 -0.001208126089  0.000292096494
   -6   -3    2    2    2 -0.001713072389  0.000550035364
   -6   -3    2    3    2  0.003072965461 -0.000720406489
   -6   -3    2    4    2  0.001321638182 -0.001331335721
   -6   -3    2    1    3  0.000069920485 -0.003297676168
   -6   -3    2    2    3 -0.000731397839 -0.000248261704
   -6   -3    2    3    3  0.000249238191  0.000804539804
   -6   -3    2    4    3  0.000037608369 -0.002334909423
   -6   -3    2    1    4  0.000731903371 -0.000248404424
   -6   -3    2    2    4  0.000069031941  0.003297888973
   -6   -3    2    3    4 -0.000038058508 -0.002335893782
   -6   -3    2    4    4  0.000248779774 -0.000804365138
   -6   -3    3    1    1 -0.001002002419  0.000436883381
   -6   -3    3    2    1 -0.001165369623  0.000620322975
   -6   -3    3    3    1 -0.000152889796  0.000430439168
   -6   -3    3    4    1 -0.000108651791  0.000682313060
   -6   -3    3    1    2  0.001165413152  0.000620037691
   -6   -3    3    2    2 -0.001002067429 -0.000436301209
   -6   -3    3    3    2  0.000109265240  0.000682576111
   -6   -3    3    4    2 -0.000152980900 -0.000430133133
   -6   -3    3    1    3 -0.002142242007  0.000019429423
   -6   -3    3    2    3  0.000691147861 -0.000030300035
   -6   -3    3    3    3  0.000735732968 -0.000069873478
   -6   -3    3    4    3  0.001473393494 -0.001568481633
   -6   -3    3    1    4 -0.000691537255 -0.000030690206
   -6   -3    3    2    4 -0.002142557713 -0.000020352574
   -6   -3    3    3    4 -0.001473176034 -0.001568634042
   -6   -3    3    4    4  0.000736478855  0.000069291572
   -6   -3    4    1    1  0.000666913737 -0.000073880863
   -6   -3    4    2    1  0.000863166698 -0.000282888475
   -6   -3    4    3    1  0.000375817607  0.000332652561
   -6   -3    4    4    1 -0.000373760288 -0.001216585630
   -6   -3    4    1    2 -0.000863482841 -0.000282082488
   -6   -3    4    2    2  0.000667197650  0.000073890473
   -6   -3    4    3    2  0.000373785459 -0.001216355611
   -6   -3    4    4    2  0.000375398631 -0.000333115345
   -6   -3    4    1    3  0.001549111194 -0.000417769274
   -6   -3    4    2    3 -0.001276072901  0.000426082692
   -6   -3    4    3    3 -0.000763384162 -0.000037384242
   -6   -3    4    4    3 -0.000387755495  0.000187297427
   -6   -3    4    1    4  0.001275772743  0.000425764433
   -6   -3    4    2    4  0.001549154737  0.000417711392
   -6   -3    4    3    4  0.000387756214  0.000186951130
   -6   -3    4    4    4 -0.000764343834  0.000037374238
   -6   -3    5    1    1 -0.000407171072  0.000412699844
   -6   -3    5    2    1 -0.000326920278  0.000717524248
   -6   -3    5    3    1 -0.000735678976 -0.000229088063
   -6   -3    5    4    1  0.000889286439 -0.000502249564
   -6   -3    5    1    2  0.000327178928  0.000717409386
   -6   -3    5    2    2 -0.000407315956 -0.000412587967
   -6   -3    5    3    2 -0.000888909844 -0.000502233011
   -6   -3    5    4    2 -0.000735407707  0.000229915441
   -6   -3    5    1    3 -0.000782842312  0.001286848173
   -6   -3    5    2    3  0.000137506677  0.001539945989
   -6   -3    5    3    3  0.000356891680 -0.000029472639
   -6   -3    5    4    3  0.000283611118 -0.000504964423
   -6   -3    5    1    4 -0.000137738504  0.001540599842
   -6   -3    5    2    4 -0.000782799840 -0.001286498985
   -6   -3    5    3    4 -0.000283677914 -0.000504840281
   -6   -3    5    4    4  0.000356485869  0.000029361200
   -6   -2   -5    1    1  0.000775875371 -0.000615932548
   -6   -2   -5    2    1 -0.000069267836 -0.000714590551
   -6   -2   -5    3    1 -0.000734999919 -0.000229679832
   -6   -2   -5    4    1 -0.000879428035 -0.000518840909
   -6   -2   -5    1    2  0.000069104882 -0.000714769478
   -6   -2   -5    2    2  0.000775883462  0.000616238744
   -6   -2   -5    3    2  0.000879497160 -0.000518792928
   -6   -2   -5    4    2 -0.000735182351  0.000229748325
   -6   -2   -5    1    3 -0.000147056600  0.000459840615
   -6   -2   -5    2    3  0.000245054441 -0.001297024064
   -6   -2   -5    3    3 -0.000680166663  0.000418819221
   -6   -2   -5    4    3 -0.000757273142 -0.000810228417
   -6   -2   -5    1    4 -0.000245056607 -0.001297692646
   -6   -2   -5    2    4 -0.000147544139 -0.000459651037
   -6   -2   -5    3    4  0.000757814137 -0.000810638716
   -6   -2   -5    4    4 -0.000679659449 -0.000419125847
   -6   -2   -4    1    1 -0.001165017841  0.000336541105
   -6   -2   -4    2    1  0.000754511727  0.000552264388
   -6   -2   -4    3    1  0.001398439326  0.000215529729
   -6   -2   -4    4    1  0.000469077616  0.000973714043
   -6   -2   -4    1    2 -0.000754906954  0.000552571910
   -6   -2   -4    2    2 -0.001165057063 -0.000338024685
   -6   -2   -4    3    2 -0.000468967754  0.000974307234
   -6   -2   -4    4    2  0.001397653667 -0.000215558055
   -6   -2   -4    1    3 -0.000722478028 -0.000265069752
   -6   -2   -4    2    3 -0.001570021606 -0.000556332093
   -6   -2   -4    3    3  0.001059982650  0.000683230258
   -6   -2   -4    4    3 -0.001855129008 -0.001397034060
   -6   -2   -4    1    4  0.001570243120 -0.000556303524
   -6   -2   -4    2    4 -0.000722529982  0.000264996199
   -6   -2   -4    3    4  0.001855765601 -0.001397724662
   -6   -2   -4    4    4  0.001058800299 -0.000681746320
   -6   -2   -3    1    1  0.001364781497  0.000078247842
   -6   -2   -3    2    1 -0.000858039412 -0.000727309685
   -6   -2   -3    3    1  0.000283354539 -0.000513250724
   -6   -2   -3    4    1  0.000271792004  0.000543369917
   -6   -2   -3    1    2  0.000858561918 -0.000727487099
   -6   -2   -3    2    2  0.001364870744 -0.000077246085
   -6   -2   -3    3    2 -0.000271366759  0.000543150232
   -6   -2   -3    4    2  0.000283153885  0.000513118845
   -6   -2   -3    1    3  0.000131720270  0.001527263278
   -6   -2   -3    2    3 -0.000284760933  0.001125695553
   -6   -2   -3    3    3 -0.001509711570  0.001848325057
   -6   -2   -3    4    3 -0.000922472970 -0.000612501523
   -6   -2   -3    1    4  0.000284342409  0.001125402558
   -6   -2   -3    2    4  0.000132050386 -0.001527919008
   -6   -2   -3    3    4  0.000922312293 -0.000612044354
   -6   -2   -3    4    4 -0.001509113465 -0.001849327997
   -6   -2   -2    1    1 -0.001757542387  0.000080135968
   -6   -2   -2    2    1  0.000044364801  0.000267718466
   -6   -2   -2    3    1  0.002723298452  0.000295801585
   -6   -2   -2    4    1  0.001528673055  0.001054295395
   -6   -2   -2    1    2 -0.000045089262  0.000268205730
   -6   -2   -2    2    2 -0.001757414063 -0.000080634599
   -6   -2   -2    3    2 -0.001528425988  0.001053789546
   -6   -2   -2    4    2  0.002723124841 -0.000295601617
   -6   -2   -2    1    3 -0.002955783699 -0.001407945414
   -6   -2   -2    2    3 -0.000970394870  0.001445695194
   -6   -2   -2    3    3  0.001277187118 -0.000232059381
   -6   -2   -2    4    3 -0.000166785550 -0.000147933055
   -6   -2   -2    1    4  0.000970012323  0.001446189485
   -6   -2   -2    2    4 -0.002955558366  0.001408101615
   -6   -2   -2    3    4  0.000167257762 -0.000147816743
   -6   -2   -2    4    4  0.001276293017  0.000232557168
   -6   -2   -1    1    1  0.001894879101 -0.000233967701
   -6   -2   -1    2    1 -0.001122208988 -0.001302649427
   -6   -2   -1    3    1  0.000362712481  0.000051351778
   -6   -2   -1    4    1  0.000674688597  0.003837161203
   -6   -2   -1    1    2  0.001122157452 -0.001302804509
   -6   -2   -1    2    2  0.001894809303  0.000233997112
   -6   -2   -1    3    2 -0.000674577882  0.003837349929
   -6   -2   -1    4    2  0.000363239708 -0.000051245444
   -6   -2   -1    1    3 -0.000656390874  0.003753888152
   -6   -2   -1    2    3  0.002528317543 -0.000345950012
   -6   -2   -1    3    3 -0.000288265200  0.002255790207
   -6   -2   -1    4    3 -0.001367119535  0.000353809054
   -6   -2   -1    1    4 -0.002527596922 -0.000345881271
   -6   -2   -1    2    4 -0.000656435142 -0.003753507012
   -6   -2   -1    3    4  0.001367435346  0.000354911237
   -6   -2   -1    4    4 -0.000288411586 -0.002255820466
   -6   -2    0    1    1 -0.003155102924  0.000226351158
   -6   -2    0    2    1 -0.002241388080 -0.001883339576
   -6   -2    0    3    1  0.001352740434  0.001257542749
   -6   -2    0    4    1  0.002005624680  0.002547531956
   -6   -2    0    1    2  0.002241026762 -0.001883079605
   -6   -2    0    2    2 -0.003154958696 -0.000226711606
   -6   -2    0    3    2 -0.002005284058  0.002547663459
   -6   -2    0    4    2  0.001353376665 -0.001257982650
   -6   -2    0    1    3 -0.000914408454 -0.002312390115
   -6   -2    0    2    3  0.001259293589  0.002708654323
   -6   -2    0    3    3  0.001067208735 -0.000441788375
   -6   -2    0    4    3 -0.000528763732  0.002451803864
   -6   -2    0    1    4 -0.001259447200  0.002708320996
   -6   -2    0    2    4 -0.000913742337  0.002312710320
   -6   -2    0    3    4  0.000528649852  0.002452671894
   -6   -2    0    4    4  0.001067348476  0.000442148943
   -6   -2    1    1    1 -0.001510504573 -0.001056251966
   -6   -2    1    2    1  0.001062431928  0.001219833816
   -6   -2    1    3    1 -0.002338470601 -0.000996434798
   -6   -2    1    4    1  0.000633399796 -0.000964521563
   -6   -2    1    1    2 -0.001062214015  0.001219589982
   -6   -2    1    2    2 -0.001510741215  0.001055983450
   -6   -2    1    3    2 -0.000634268850 -0.000965170620
   -6   -2    1    4    2 -0.002338078250  0.000996666621
   -6   -2    1    1    3  0.000746793754  0.000451965343
   -6   -2    1    2    3  0.002033152098 -0.000056230318
   -6   -2    1    3    3 -0.000336652479 -0.002477656374
   -6   -2    1    4    3 -0.001470294926  0.001483523974
   -6   -2    1    1    4 -0.002032715378 -0.000055676880
   -6   -2    1    2    4  0.000747097196 -0.000452247956
   -6   -2    1    3    4  0.001470169594  0.001484441200
   -6   -2    1    4    4 -0.000336213178  0.002477925228
   -6   -2    2    1    1 -0.000191675509  0.001283525395
   -6   -2    2    2    1 -0.001339171991  0.000523405963
   -6   -2    2    3    1  0.001321376799  0.001332162890
   -6   -2    2    4    1  0.000911757892  0.003021562091
   -6   -2    2    1    2  0.001339073140  0.000523385781
   -6   -2    2    2    2 -0.000190323365 -0.001283868037
   -6   -2    2    3    2 -0.000912465044  0.003020513357
   -6   -2    2    4    2  0.001321576606 -0.001331553017
   -6   -2    2    1    3  0.002686258330 -0.000520940346
   -6   -2    2    2    3 -0.001870697579 -0.001918221348
   -6   -2    2    3    3  0.001581391537  0.000769332196
   -6   -2    2    4    3 -0.000258296142  0.001779204500
   -6   -2    2    1    4  0.001870105662 -0.001917852386
   -6   -2    2    2    4  0.002685740721  0.000521529998
   -6   -2    2    3    4  0.000257998264  0.001779434922
   -6   -2    2    4    4  0.001580691679 -0.000768988588
   -6   -2    3    1    1  0.000783664904 -0.001111463770
   -6   -2    3    2    1 -0.000584307377  0.000102694319
   -6   -2    3    3    1 -0.000152990862  0.000430375767
   -6   -2    3    4    1  0.000645440591 -0.000247549298
   -6   -2    3    1    2  0.000584627550  0.000102778710
   -6   -2    3    2    2  0.000784800180  0.001111294566
   -6   -2    3    3    2 -0.000645586031 -0.000247582178
   -6   -2    3    4    2 -0.000152704130 -0.000430233343
   -6   -2    3    1    3  0.000700476319 -0.000410082161
   -6   -2    3    2    3 -0.000103195586 -0.000513767307
   -6   -2    3    3    3 -0.001334062194  0.000877940257
   -6   -2    3    4    3  0.000710506426  0.000050649069
   -6   -2    3    1    4  0.000103726981 -0.000514129388
   -6   -2    3    2    4  0.000700120080  0.000410175732
   -6   -2    3    3    4 -0.000710696003  0.000050761542
   -6   -2    3    4    4 -0.001333209709 -0.000877772189
   -6   -2    4    1    1 -0.001543422996  0.000631369634
   -6   -2    4    2    1 -0.000609405819  0.000239399724
   -6   -2    4    3    1  0.000375743235  0.000332553870
   -6   -2    4    4    1 -0.000866164288  0.000931623309
   -6   -2    4    1    2  0.000609400347  0.000239012055
   -6   -2    4    2    2 -0.001544647718 -0.000631242028
   -6   -2    4    3    2  0.000866669584  0.000931791834
   -6   -2    4    4    2  0.000375185060 -0.000332979271
   -6   -2    4    1    3  0.001180004185 -0.000520754263
   -6   -2    4    2    3 -0.001122160138 -0.000852311675
   -6   -2    4    3    3  0.000712688815 -0.000175994587
   -6   -2    4    4    3 -0.000782103852 -0.000582165688
   -6   -2    4    1    4  0.001122843758 -0.000851738965
   -6   -2    4    2    4  0.001180346077  0.000520949357
   -6   -2    4    3    4  0.000781683322 -0.000582524958
   -6   -2    4    4    4  0.000712465189  0.000175867361
   -6   -2    5    1    1  0.000775875371 -0.000615932548
   -6   -2    5    2    1 -0.000069267836 -0.000714590551
   -6   -2    5    3    1 -0.000734999919 -0.000229679832
   -6   -2    5    4    1 -0.000879428035 -0.000518840909
   -6   -2    5    1    2  0.000069104882 -0.000714769478
   -6   -2    5    2    2  0.000775883462  0.000616238744
   -6   -2    5    3    2  0.000879497160 -0.000518792928
   -6   -2    5    4    2 -0.000735182351  0.000229748325
   -6   -2    5    1    3 -0.000147056600  0.000459840615
   -6   -2    5    2    3  0.000245054441 -0.001297024064
   -6   -2    5    3    3 -0.000680166663  0.000418819221
   -6   -2    5    4    3 -0.000757273142 -0.000810228417
   -6   -2    5    1    4 -0.000245056607 -0.001297692646
   -6   -2    5    2    4 -0.000147544139 -0.000459651037
   -6   -2    5    3    4  0.000757814137 -0.000810638716
   -6   -2    5    4    4 -0.000679659449 -0.000419125847
   -5   -5   -5    1    1 -0.000454336810 -0.000000000000
   -5   -5   -5    2    1  0.000000325294 -0.000000220517
   -5   -5   -5    3    1  0.000077596463 -0.001004128384
   -5   -5   -5    4    1  0.000674631494 -0.000151827360
   -5   -5   -5    1    2  0.000000325294  0.000000220517
   -5   -5   -5    2    2 -0.000453444370  0.000000000000
   -5   -5   -5    3    2 -0.000674969383 -0.000151710480
   -5   -5   -5    4    2  0.000077298461  0.001003710726
   -5   -5   -5    1    3  0.000077596463  0.001004128384
   -5   -5   -5    2    3 -0.000674969383  0.000151710480
   -5   -5   -5    3    3  0.000260055453 -0.000000000000
   -5   -5   -5    4    3 -0.000000373549 -0.000000315900
   -5   -5   -5    1    4  0.000674631494  0.000151827360
   -5   -5   -5    2    4  0.000077298461 -0.001003710726
   -5   -5   -5    3    4 -0.000000373549  0.000000315900
   -5   -5   -5    4    4  0.000260024595 -0.000000000000
   -5   -5   -4    1    1  0.000373264023  0.000441176909
   -5   -5   -4    2    1 -0.000497887290 -0.000575044990
   -5   -5   -4    3    1 -0.001015277646 -0.001439076531
   -5   -5   -4    4    1 -0.000350393971 -0.000902247578
   -5   -5   -4    1    2  0.000498276006 -0.000575634222
   -5   -5   -4    2    2  0.000373272588 -0.000441267969
   -5   -5   -4    3    2  0.000350121885 -0.000901834843
   -5   -5   -4    4    2 -0.001015324117  0.001439345053
   -5   -5   -4    1    3  0.000766576721  0.000447080980
   -5   -5   -4    2    3  0.000193008069  0.001553695837
   -5   -5   -4    3    3 -0.000283820883  0.000054778462
   -5   -5   -4    4    3  0.000567765622  0.000774795429
   -5   -5   -4    1    4 -0.000192742221  0.001553816508
   -5   -5   -4    2    4  0.000767096272 -0.000446260728
   -5   -5   -4    3    4 -0.000567721558  0.000775259335
   -5   -5   -4    4    4 -0.000283372310 -0.000054687531
   -5   -5   -3    1    1 -0.000721486758  0.000252695113
   -5   -5   -3    2    1 -0.001341254102  0.000572554046
   -5   -5   -3    3    1  0.000219051759 -0.000912402584
   -5   -5   -3    4    1 -0.000231416347  0.000231731311
   -5   -5   -3    1    2  0.001340913856  0.000572889607
   -5   -5   -3    2    2 -0.000720734508 -0.000252905034
   -5   -5   -3    3    2  0.000231031355  0.000232340717
   -5   -5   -3    4    2  0.000220146343  0.000912296967
   -5   -5   -3    1    3 -0.000118668854 -0.001263573968
   -5   -5   -3    2    3  0.001807898584 -0.001357663660
   -5   -5   -3    3    3  0.000399877432 -0.000147246789
   -5   -5   -3    4    3 -0.000815182840  0.001020294114
   -5   -5   -3    1    4 -0.001808023132 -0.001358019844
   -5   -5   -3    2    4 -0.000118384744  0.001263019731
   -5   -5   -3    3    4  0.000815150171  0.001020915049
   -5   -5   -3    4    4  0.000399529136  0.000147456985
   -5   -5   -2    1    1  0.000659647368  0.000532917139
   -5   -5   -2    2    1  0.001019327472 -0.000456544630
   -5   -5   -2    3    1 -0.000755357117 -0.002246283442
   -5   -5   -2    4    1  0.000719503736 -0.002667426817
   -5   -5   -2    1    2 -0.001019259101 -0.000456219777
   -5   -5   -2    2    2  0.000659378445 -0.000532631863
   -5   -5   -2    3    2 -0.000719240126 -0.002666686913
   -5   -5   -2    4    2 -0.000754772053  0.002246073027
   -5   -5   -2    1    3  0.001692864607  0.002756070659
   -5   -5   -2    2    3  0.000700713435  0.001666430290
   -5   -5   -2    3    3 -0.000802731170  0.000060327756
   -5   -5   -2    4    3  0.000690688894 -0.001160692687
   -5   -5   -2    1    4 -0.000700560036  0.001666552455
   -5   -5   -2    2    4  0.001694044174 -0.002755795156
   -5   -5   -2    3    4 -0.000691413289 -0.001160239509
   -5   -5   -2    4    4 -0.000802458123 -0.000060613271
   -5   -5   -1    1    1 -0.000406792639  0.001443370704
   -5   -5   -1    2    1  0.001177972228 -0.000388971328
   -5   -5   -1    3    1  0.001961461132 -0.002566540368
   -5   -5   -1    4    1 -0.000622905564  0.000501837649
   -5   -5   -1    1    2 -0.001178722592 -0.000388925510
   -5   -5   -1    2    2 -0.000405518037 -0.001443575853
   -5   -5   -1    3    2  0.000623185081  0.000501131551
   -5   -5   -1    4    2  0.001960768801  0.002567546301
   -5   -5   -1    1    3  0.005217460046 -0.004137612226
   -5   -5   -1    2    3  0.000417319781 -0.004380972503
   -5   -5   -1    3    3  0.003834589064 -0.001446916465
   -5   -5   -1    4    3  0.003411020300 -0.000027845638
   -5   -5   -1    1    4 -0.000417574409 -0.004380856599
   -5   -5   -1    2    4  0.005217525215  0.004137989415
   -5   -5   -1    3    4 -0.003411069297 -0.000027650838
   -5   -5   -1    4    4  0.003835112552  0.001447119669
   -5   -5    0    1    1 -0.004240480650  0.000000000000
   -5   -5    0    2    1  0.000000255375 -0.000000266272
   -5   -5    0    3    1  0.000770988925 -0.002609868629
   -5   -5    0    4    1  0.001217763707 -0.001068637034
   -5   -5    0    1    2  0.000000255375  0.000000266272
   -5   -5    0    2    2 -0.004240923858  0.000000000000
   -5   -5    0    3    2 -0.001217477572 -0.001068675631
   -5   -5    0    4    2  0.000771034173  0.002608885467
   -5   -5    0    1    3  0.000770988925  0.002609868629
   -5   -5    0    2    3 -0.001217477572  0.001068675631
   -5   -5    0    3    3 -0.001945609916  0.000000000000
   -5   -5    0    4    3  0.000000125223 -0.000000141529
   -5   -5    0    1    4  0.001217763707  0.001068637034
   -5   -5    0    2    4  0.000771034173 -0.002608885467
   -5   -5    0    3    4  0.000000125223  0.000000141529
   -5   -5    0    4    4 -0.001945303644  0.000000000000
   -5   -5    1    1    1 -0.000406792639 -0.001443370704
   -5   -5    1    2    1 -0.001178722592  0.000388925510
   -5   -5    1    3    1  0.005217460046  0.004137612226
   -5   -5    1    4    1 -0.000417574409  0.004380856599
   -5   -5    1    1    2  0.001177972228  0.000388971328
   -5   -5    1    2    2 -0.000405518037  0.001443575853
   -5   -5    1    3    2  0.000417319781  0.004380972503
   -5   -5    1    4    2  0.005217525215 -0.004137989415
   -5   -5    1    1    3  0.001961461132  0.002566540368
   -5   -5    1    2    3  0.000623185081 -0.000501131551
   -5   -5    1    3    3  0.003834589064  0.001446916465
   -5   -5    1    4    3 -0.003411069297  0.000027650838
   -5   -5    1    1    4 -0.000622905564 -0.000501837649
   -5   -5    1    2    4  0.001960768801 -0.002567546301
   -5   -5    1    3    4  0.003411020300  0.000027845638
   -5   -5    1    4    4  0.003835112552 -0.001447119669
   -5   -5    2    1    1  0.000659647368 -0.000532917139
   -5   -5    2    2    1 -0.001019259101  0.000456219777
   -5   -5    2    3    1  0.001692864607 -0.002756070659
   -5   -5    2    4    1 -0.000700560036 -0.001666552455
   -5   -5    2    1    2  0.001019327472  0.000456544630
   -5   -5    2    2    2  0.000659378445  0.000532631863
   -5   -5    2    3    2  0.000700713435 -0.001666430290
   -5   -5    2    4    2  0.001694044174  0.002755795156
   -5   -5    2    1    3 -0.000755357117  0.002246283442
   -5   -5    2    2    3 -0.000719240126  0.002666686913
   -5   -5    2    3    3 -0.000802731170 -0.000060327756
   -5   -5    2    4    3 -0.000691413289  0.001160239509
   -5   -5    2    1    4  0.000719503736  0.002667426817
   -5   -5    2    2    4 -0.000754772053 -0.002246073027
   -5   -5    2    3    4  0.000690688894  0.001160692687
   -5   -5    2    4    4 -0.000802458123  0.000060613271
   -5   -5    3    1    1 -0.000721486758 -0.000252695113
   -5   -5    3    2    1  0.001340913856 -0.000572889607
   -5   -5    3    3    1 -0.000118668854  0.001263573968
   -5   -5    3    4    1 -0.001808023132  0.001358019844
   -5   -5    3    1    2 -0.001341254102 -0.000572554046
   -5   -5    3    2    2 -0.000720734508  0.000252905034
   -5   -5    3    3    2  0.001807898584  0.001357663660
   -5   -5    3    4    2 -0.000118384744 -0.001263019731
   -5   -5    3    1    3  0.000219051759  0.000912402584
   -5   -5    3    2    3  0.000231031355 -0.000232340717
   -5   -5    3    3    3  0.000399877432  0.000147246789
   -5   -5    3    4    3  0.000815150171 -0.001020915049
   -5   -5    3    1    4 -0.000231416347 -0.000231731311
   -5   -5    3    2    4  0.000220146343 -0.000912296967
   -5   -5    3    3    4 -0.000815182840 -0.001020294114
   -5   -5    3    4    4  0.000399529136 -0.000147456985
   -5   -5    4    1    1  0.000373264023 -0.000441176909
   -5   -5    4    2    1  0.000498276006  0.000575634222
   -5   -5    4    3    1  0.000766576721 -0.000447080980
   -5   -5    4    4    1 -0.000192742221 -0.001553816508
   -5   -5    4    1    2 -0.000497887290  0.000575044990
   -5   -5    4    2    2  0.000373272588  0.000441267969
   -5   -5    4    3    2  0.000193008069 -0.001553695837
   -5   -5    4    4    2  0.000767096272  0.000446260728
   -5   -5    4    1    3 -0.001015277646  0.001439076531
   -5   -5    4    2    3  0.000350121885  0.000901834843
   -5   -5    4    3    3 -0.000283820883 -0.000054778462
   -5   -5    4    4    3 -0.000567721558 -0.000775259335
   -5   -5    4    1    4 -0.000350393971  0.000902247578
   -5   -5    4    2    4 -0.001015324117 -0.001439345053
   -5   -5    4    3    4  0.000567765622 -0.000774795429
   -5   -5    4    4    4 -0.000283372310  0.000054687531
   -5   -5    5    1    1 -0.000454336810  0.000000000000
   -5   -5    5    2    1  0.000000325294 -0.000000220517
   -5   -5    5    3    1  0.000077596463 -0.001004128384
   -5   -5    5    4    1  0.000674631494 -0.000151827360
   -5   -5    5    1    2  0.000000325294  0.000000220517
   -5   -5    5    2    2 -0.000453444370  0.000000000000
   -5   -5    5    3    2 -0.000674969383 -0.000151710480
   -5   -5    5    4    2  0.000077298461  0.001003710726
   -5   -5    5    1    3  0.000077596463  0.001004128384
   -5   -5    5    2    3 -0.000674969383  0.000151710480
   -5   -5    5    3    3  0.000260055453  0.000000000000
   -5   -5    5    4    3 -0.000000373549 -0.000000315900
   -5   -5    5    1    4  0.000674631494  0.000151827360
   -5   -5    5    2    4  0.000077298461 -0.001003710726
   -5   -5    5    3    4 -0.000000373549  0.000000315900
   -5   -5    5    4    4  0.000260024595  0.000000000000
   -5   -4   -5    1    1 -0.000174546467 -0.000119926890
   -5   -4   -5    2    1 -0.000883607986 -0.000702099978
   -5   -4   -5    3    1  0.001641919355  0.000666546313
   -5   -4   -5    4    1 -0.000279169687  0.000550474284
   -5   -4   -5    1    2  0.000883524814 -0.000702575595
   -5   -4   -5    2    2 -0.000175029000  0.000119577244
   -5   -4   -5    3    2  0.000279061449  0.000550733597
   -5   -4   -5    4    2  0.001641368695 -0.000666799012
   -5   -4   -5    1    3  0.000790638282 -0.000092595608
   -5   -4   -5    2    3  0.000168908652 -0.000244769914
   -5   -4   -5    3    3  0.000290056997 -0.001030293164
   -5   -4   -5    4    3 -0.000943301618 -0.000920602854
   -5   -4   -5    1    4 -0.000168658926 -0.000245179405
   -5   -4   -5    2    4  0.000790848805  0.000092630752
   -5   -4   -5    3    4  0.000943826564 -0.000921107287
   -5   -4   -5    4    4  0.000290710870  0.001030641913
   -5   -4   -4    1    1  0.000621409098 -0.000837087382
   -5   -4   -4    2    1  0.000132476799 -0.000958366266
   -5   -4   -4    3    1  0.000598493141 -0.000284916314
   -5   -4   -4    4    1 -0.000449616293 -0.000384179703
   -5   -4   -4    1    2 -0.000132336815 -0.000957825977
   -5   -4   -4    2    2  0.000621134668  0.000836831078
   -5   -4   -4    3    2  0.000449076202 -0.000383781948
   -5   -4   -4    4    2  0.000598964435  0.000284402651
   -5   -4   -4    1    3 -0.000461443184  0.001342817904
   -5   -4   -4    2    3 -0.000872161944  0.000343100542
   -5   -4   -4    3    3 -0.000635278501 -0.001885529525
   -5   -4   -4    4    3 -0.001859186705 -0.001685802878
   -5   -4   -4    1    4  0.000872477885  0.000341699512
   -5   -4   -4    2    4 -0.000461299848 -0.001342838651
   -5   -4   -4    3    4  0.001858751136 -0.001686027195
   -5   -4   -4    4    4 -0.000635219526  0.001885786136
   -5   -4   -3    1    1 -0.000582292803 -0.000848032501
   -5   -4   -3    2    1 -0.000052826462 -0.000766103243
   -5   -4   -3    3    1  0.000782595276  0.000470898437
   -5   -4   -3    4    1  0.000118916520  0.001938542757
   -5   -4   -3    1    2  0.000052722084 -0.000765814412
   -5   -4   -3    2    2 -0.000582697116  0.000847641267
   -5   -4   -3    3    2 -0.000118587445  0.001938689343
   -5   -4   -3    4    2  0.000781942966 -0.000470699164
   -5   -4   -3    1    3  0.002838283994 -0.001392690841
   -5   -4   -3    2    3 -0.000086670455 -0.000231020279
   -5   -4   -3    3    3  0.000931925287 -0.002122958166
   -5   -4   -3    4    3  0.001241925613 -0.000472395515
   -5   -4   -3    1    4  0.000086938421 -0.000230774731
   -5   -4   -3    2    4  0.002838702405  0.001393911598
   -5   -4   -3    3    4 -0.001241945604 -0.000472488075
   -5   -4   -3    4    4  0.000931964076  0.002123348324
   -5   -4   -2    1    1  0.001025690947 -0.000496394506
   -5   -4   -2    2    1 -0.001190806934 -0.001394234253
   -5   -4   -2    3    1  0.001424438548  0.000971189991
   -5   -4   -2    4    1 -0.000340162188  0.000087008126
   -5   -4   -2    1    2  0.001191039523 -0.001394213209
   -5   -4   -2    2    2  0.001025377529  0.000495930970
   -5   -4   -2    3    2  0.000339979764  0.000087861197
   -5   -4   -2    4    2  0.001424293471 -0.000971691782
   -5   -4   -2    1    3 -0.005458861165 -0.001515432492
   -5   -4   -2    2    3 -0.002822243164 -0.001688006602
   -5   -4   -2    3    3  0.000615618768 -0.000165882113
   -5   -4   -2    4    3 -0.001362150059 -0.004326059854
   -5   -4   -2    1    4  0.002822599162 -0.001688485139
   -5   -4   -2    2    4 -0.005459504494  0.001515372516
   -5   -4   -2    3    4  0.001361858423 -0.004326138700
   -5   -4   -2    4    4  0.000616189186  0.000166345280
   -5   -4   -1    1    1  0.001300382192 -0.000877753528
   -5   -4   -1    2    1  0.000058320289  0.002009756691
   -5   -4   -1    3    1  0.005877957115  0.000625431599
   -5   -4   -1    4    1  0.002759236875 -0.000752811779
   -5   -4   -1    1    2 -0.000058165056  0.002009676170
   -5   -4   -1    2    2  0.001299845494  0.000877329632
   -5   -4   -1    3    2 -0.002759067846 -0.000753375837
   -5   -4   -1    4    2  0.005877882949 -0.000625480197
   -5   -4   -1    1    3 -0.000013372948 -0.000900719432
   -5   -4   -1    2    3 -0.003568130388  0.003286462402
   -5   -4   -1    3    3 -0.001351074519  0.000626803926
   -5   -4   -1    4    3 -0.001644058033 -0.001677676864
   -5   -4   -1    1    4  0.003567832391  0.003286501958
   -5   -4   -1    2    4 -0.000013354750  0.000900673759
   -5   -4   -1    3    4  0.001643458020 -0.001678096853
   -5   -4   -1    4    4 -0.001350880208 -0.000626379524
   -5   -4    0    1    1  0.000713890328 -0.000206623749
   -5   -4    0    2    1 -0.001786391554 -0.003357304360
   -5   -4    0    3    1 -0.004280030888  0.000828032262
   -5   -4    0    4    1  0.001722705889  0.002447300546
   -5   -4    0    1    2  0.001785755430 -0.003357292448
   -5   -4    0    2    2  0.000714092381  0.000206559041
   -5   -4    0    3    2 -0.001722324095  0.002446958119
   -5   -4    0    4    2 -0.004279727867 -0.000827311211
   -5   -4    0    1    3 -0.003621740593 -0.004837049811
   -5   -4    0    2    3  0.001453310765  0.002454556001
   -5   -4    0    3    3  0.001611826027 -0.001635095678
   -5   -4    0    4    3 -0.001587934852  0.001291599634
   -5   -4    0    1    4 -0.001453119533  0.002454751110
   -5   -4    0    2    4 -0.003621080857  0.004837379008
   -5   -4    0    3    4  0.001587805792  0.001292085582
   -5   -4    0    4    4  0.001612244182  0.001635162578
   -5   -4    1    1    1  0.000341829222  0.000683911698
   -5   -4    1    2    1  0.002418975850 -0.001168722193
   -5   -4    1    3    1 -0.005259094400 -0.003404618727
   -5   -4    1    4    1 -0.002958054647  0.000282346476
   -5   -4    1    1    2 -0.002419170592 -0.001168483290
   -5   -4    1    2    2  0.000341826869 -0.000684813026
   -5   -4    1    3    2  0.002957568425  0.000283024167
   -5   -4    1    4    2 -0.005259926013  0.003404628757
   -5   -4    1    1    3  0.003473564216 -0.003503738015
   -5   -4    1    2    3 -0.000069929473  0.002949321550
   -5   -4    1    3    3 -0.001029973331 -0.003028675449
   -5   -4    1    4    3 -0.000576720239  0.001654347463
   -5   -4    1    1    4  0.000069975369  0.002949655676
   -5   -4    1    2    4  0.003473951823  0.003504359278
   -5   -4    1    3    4  0.000576488502  0.001653573203
   -5   -4    1    4    4 -0.001030671284  0.003029575618
   -5   -4    2    1    1  0.000676669794 -0.000909604540
   -5   -4    2    2    1 -0.001151828348  0.000203174395
   -5   -4    2    3    1 -0.001348371703  0.001670841096
   -5   -4    2    4    1  0.000320106605  0.001350040425
   -5   -4    2    1    2  0.001151847804  0.000202841405
   -5   -4    2    2    2  0.000677310496  0.000909681494
   -5   -4    2    3    2 -0.000320185566  0.001349862117
   -5   -4    2    4    2 -0.001348182672 -0.001671012538
   -5   -4    2    1    3 -0.000498359692 -0.002257189825
   -5   -4    2    2    3  0.001306261706 -0.002187455141
   -5   -4    2    3    3 -0.000028212293 -0.001727070723
   -5   -4    2    4    3 -0.000451205855 -0.001330179185
   -5   -4    2    1    4 -0.001306324684 -0.002187673241
   -5   -4    2    2    4 -0.000499045205  0.002257507631
   -5   -4    2    3    4  0.000450988456 -0.001330069200
   -5   -4    2    4    4 -0.000028235985  0.001726994525
   -5   -4    3    1    1  0.001064083524  0.000885672305
   -5   -4    3    2    1 -0.001688703224  0.000208838819
   -5   -4    3    3    1 -0.000303320691  0.001439355747
   -5   -4    3    4    1 -0.000135752708  0.000867693662
   -5   -4    3    1    2  0.001688630273  0.000209038029
   -5   -4    3    2    2  0.001063096037 -0.000886333451
   -5   -4    3    3    2  0.000135191117  0.000867502274
   -5   -4    3    4    2 -0.000303620538 -0.001439333683
   -5   -4    3    1    3  0.001412358849 -0.000930529736
   -5   -4    3    2    3  0.000482491859  0.000104906063
   -5   -4    3    3    3  0.000153290334 -0.000026317789
   -5   -4    3    4    3 -0.002023473150 -0.001048649369
   -5   -4    3    1    4 -0.000482601003  0.000104556646
   -5   -4    3    2    4  0.001412745276  0.000930039703
   -5   -4    3    3    4  0.002023610750 -0.001049290874
   -5   -4    3    4    4  0.000154329102  0.000026977872
   -5   -4    4    1    1  0.000747384134 -0.000594454766
   -5   -4    4    2    1  0.000216143896 -0.000459161576
   -5   -4    4    3    1 -0.001514384230 -0.000110171183
   -5   -4    4    4    1  0.000715052640 -0.001042736808
   -5   -4    4    1    2 -0.000216629135 -0.000459332886
   -5   -4    4    2    2  0.000747952960  0.000594367507
   -5   -4    4    3    2 -0.000714544177 -0.001042831850
   -5   -4    4    4    2 -0.001514671623  0.000110425190
   -5   -4    4    1    3 -0.001989749654  0.000268668181
   -5   -4    4    2    3 -0.001024566225 -0.000296022695
   -5   -4    4    3    3 -0.000422684760  0.000515438764
   -5   -4    4    4    3  0.000183523412 -0.000965319217
   -5   -4    4    1    4  0.001025026383 -0.000296364561
   -5   -4    4    2    4 -0.001989653806 -0.000269066960
   -5   -4    4    3    4 -0.000183228304 -0.000965748658
   -5   -4    4    4    4 -0.000421952119 -0.000515351064
   -5   -4    5    1    1 -0.000174546467 -0.000119926890
   -5   -4    5    2    1 -0.000883607986 -0.000702099978
   -5   -4    5    3    1  0.001641919355  0.000666546313
   -5   -4    5    4    1 -0.000279169687  0.000550474284
   -5   -4    5    1    2  0.000883524814 -0.000702575595
   -5   -4    5    2    2 -0.000175029000  0.000119577244
   -5   -4    5    3    2  0.000279061449  0.000550733597
   -5   -4    5    4    2  0.001641368695 -0.000666799012
   -5   -4    5    1    3  0.000790638282 -0.000092595608
   -5   -4    5    2    3  0.000168908652 -0.000244769914
   -5   -4    5    3    3  0.000290056997 -0.001030293164
   -5   -4    5    4    3 -0.000943301618 -0.000920602854
   -5   -4    5    1    4 -0.000168658926 -0.000245179405
   -5   -4    5    2    4  0.000790848805  0.000092630752
   -5   -4    5    3    4  0.000943826564 -0.000921107287
   -5   -4    5    4    4  0.000290710870  0.001030641913
   -5   -3   -5    1    1  0.000051808912  0.000406377636
   -5   -3   -5    2    1  0.000968641541  0.000066707761
   -5   -3   -5    3    1 -0.000037503724  0.000895524402
   -5   -3   -5    4    1 -0.000631211689 -0.000180466548
   -5   -3   -5    1    2 -0.000968683502  0.000067523677
   -5   -3   -5    2    2  0.000051590212 -0.000406225631
   -5   -3   -5    3    2  0.000631066032 -0.000180502009
   -5   -3   -5    4    2 -0.000036802545 -0.000896333357
   -5   -3   -5    1    3  0.001100505140 -0.000328204644
   -5   -3   -5    2    3 -0.000258049397 -0.000314648039
   -5   -3   -5    3    3 -0.000220586327  0.000987638544
   -5   -3   -5    4    3 -0.000295080459  0.000300135421
   -5   -3   -5    1    4  0.000258895494 -0.000313984371
   -5   -3   -5    2    4  0.001101246201  0.000328141145
   -5   -3   -5    3    4  0.000294747859  0.000300739725
   -5   -3   -5    4    4 -0.000220810459 -0.000987790095
   -5   -3   -4    1    1  0.000155648982 -0.000052408646
   -5   -3   -4    2    1 -0.000024360692  0.001215688159
   -5   -3   -4    3    1 -0.000474864211  0.000728818878
   -5   -3   -4    4    1  0.000043580971 -0.001877513443
   -5   -3   -4    1    2  0.000024273599  0.001215017998
   -5   -3   -4    2    2  0.000156209049  0.000052450103
   -5   -3   -4    3    2 -0.000043163032 -0.001877357076
   -5   -3   -4    4    2 -0.000475257012 -0.000728844075
   -5   -3   -4    1    3 -0.000408831010 -0.000236917817
   -5   -3   -4    2    3 -0.001421728116  0.002141447263
   -5   -3   -4    3    3 -0.000156445516  0.002327620364
   -5   -3   -4    4    3 -0.000064612672  0.000726044164
   -5   -3   -4    1    4  0.001422241785  0.002140676757
   -5   -3   -4    2    4 -0.000408646229  0.000237667447
   -5   -3   -4    3    4  0.000064984811  0.000726146851
   -5   -3   -4    4    4 -0.000156230435 -0.002327662034
   -5   -3   -3    1    1 -0.000137741160  0.000944027551
   -5   -3   -3    2    1 -0.001666740366  0.000096839203
   -5   -3   -3    3    1 -0.000807426987  0.001379741133
   -5   -3   -3    4    1 -0.000881599321 -0.001311752637
   -5   -3   -3    1    2  0.001666363557  0.000096949624
   -5   -3   -3    2    2 -0.000138351760 -0.000944177395
   -5   -3   -3    3    2  0.000882598177 -0.001312444885
   -5   -3   -3    4    2 -0.000806714420 -0.001379183122
   -5   -3   -3    1    3 -0.002382159812  0.001015970224
   -5   -3   -3    2    3  0.002158286825  0.001047536008
   -5   -3   -3    3    3 -0.000036788838  0.003457948005
   -5   -3   -3    4    3 -0.000873733133  0.000974765114
   -5   -3   -3    1    4 -0.002158374532  0.001047946381
   -5   -3   -3    2    4 -0.002382343763 -0.001016091725
   -5   -3   -3    3    4  0.000874238900  0.000974639787
   -5   -3   -3    4    4 -0.000036611147 -0.003457797529
   -5   -3   -2    1    1  0.001013141155  0.000355565521
   -5   -3   -2    2    1  0.001488892850  0.002746241605
   -5   -3   -2    3    1  0.000582002675 -0.000678326373
   -5   -3   -2    4    1  0.000211310914  0.001121874935
   -5   -3   -2    1    2 -0.001488517187  0.002745563466
   -5   -3   -2    2    2  0.001013193333 -0.000355103908
   -5   -3   -2    3    2 -0.000210931027  0.001121350329
   -5   -3   -2    4    2  0.000581590826  0.000678266800
   -5   -3   -2    1    3  0.001849773435  0.001226631390
   -5   -3   -2    2    3  0.002677438469  0.002612014880
   -5   -3   -2    3    3 -0.000731748166  0.002602868665
   -5   -3   -2    4    3  0.002440495352  0.004346341268
   -5   -3   -2    1    4 -0.002678201265  0.002612817857
   -5   -3   -2    2    4  0.001850370319 -0.001227695235
   -5   -3   -2    3    4 -0.002440978929  0.004346460985
   -5   -3   -2    4    4 -0.000731876250 -0.002603330159
   -5   -3   -1    1    1 -0.002078762493 -0.000598613809
   -5   -3   -1    2    1  0.000159072932 -0.000371371448
   -5   -3   -1    3    1 -0.004131434773  0.001759494009
   -5   -3   -1    4    1 -0.004195090897  0.001677308184
   -5   -3   -1    1    2 -0.000159449336 -0.000371669402
   -5   -3   -1    2    2 -0.002078469774  0.000598548549
   -5   -3   -1    3    2  0.004194952883  0.001676972096
   -5   -3   -1    4    2 -0.004130589025 -0.001759535922
   -5   -3   -1    1    3  0.000947555815  0.001901928920
   -5   -3   -1    2    3  0.003230982250 -0.004317676921
   -5   -3   -1    3    3  0.001834916038  0.003505530598
   -5   -3   -1    4    3  0.000924111941  0.002595005992
   -5   -3   -1    1    4 -0.003230499787 -0.004317035728
   -5   -3   -1    2    4  0.000947582519 -0.001901717530
   -5   -3   -1    3    4 -0.000924608896  0.002595896806
   -5   -3   -1    4    4  0.001834810172 -0.003505464815
   -5   -3    0    1    1  0.000556168012 -0.000638683650
   -5   -3    0    2    1  0.000463012455  0.001345262544
   -5   -3    0    3    1  0.000286030671 -0.000510164415
   -5   -3    0    4    1 -0.001727852323 -0.003179686239
   -5   -3    0    1    2 -0.000463039628  0.001345215208
   -5   -3    0    2    2  0.000555607905  0.000638406442
   -5   -3    0    3    2  0.001728058171 -0.003179271098
   -5   -3    0    4    2  0.000285048152  0.000509419550
   -5   -3    0    1    3 -0.000206904159  0.000644459505
   -5   -3    0    2    3  0.004323582577  0.001978835988
   -5   -3    0    3    3 -0.002413822330  0.000268085792
   -5   -3    0    4    3  0.005152853017  0.003541558429
   -5   -3    0    1    4 -0.004323677312  0.001979667904
   -5   -3    0    2    4 -0.000206834649 -0.000644625364
   -5   -3    0    3    4 -0.005152214111  0.003541772855
   -5   -3    0    4    4 -0.002414696362 -0.000267808045
   -5   -3    1    1    1 -0.001846851864  0.000989489843
   -5   -3    1    2    1  0.002628507569 -0.000783471070
   -5   -3    1    3    1 -0.002731254608 -0.002281551571
   -5   -3    1    4    1 -0.000237528176 -0.000181039452
   -5   -3    1    1    2 -0.002628769892 -0.000783817956
   -5   -3    1    2    2 -0.001847016687 -0.000989708832
   -5   -3    1    3    2  0.000237440523 -0.000181327667
   -5   -3    1    4    2 -0.002731360406  0.002281380959
   -5   -3    1    1    3  0.008910174952  0.002967650335
   -5   -3    1    2    3  0.000288937755  0.001190247383
   -5   -3    1    3    3  0.000826133116  0.004133132067
   -5   -3    1    4    3  0.003245215906  0.001840415761
   -5   -3    1    1    4 -0.000289309160  0.001190374787
   -5   -3    1    2    4  0.008910749956 -0.002967623688
   -5   -3    1    3    4 -0.003245275217  0.001840934102
   -5   -3    1    4    4  0.000826531259 -0.004132910583
   -5   -3    2    1    1 -0.000195917685 -0.002956706013
   -5   -3    2    2    1 -0.002586511061  0.001867696857
   -5   -3    2    3    1  0.002575398338  0.000429887656
   -5   -3    2    4    1  0.001407615736 -0.004141811534
   -5   -3    2    1    2  0.002586842117  0.001866980944
   -5   -3    2    2    2 -0.000196569555  0.002957213337
   -5   -3    2    3    2 -0.001407818527 -0.004142216282
   -5   -3    2    4    2  0.002574335860 -0.000429456250
   -5   -3    2    1    3 -0.000513192883 -0.001067708772
   -5   -3    2    2    3 -0.000067108341 -0.000618060696
   -5   -3    2    3    3  0.000955012519  0.001364238836
   -5   -3    2    4    3  0.002412667816  0.002181643416
   -5   -3    2    1    4  0.000066501157 -0.000617919012
   -5   -3    2    2    4 -0.000512304549  0.001067043566
   -5   -3    2    3    4 -0.002413015015  0.002182452880
   -5   -3    2    4    4  0.000956048098 -0.001364747870
   -5   -3    3    1    1 -0.000953146119  0.000156693996
   -5   -3    3    2    1  0.001179128446  0.000076408006
   -5   -3    3    3    1  0.000472497544  0.000396586297
   -5   -3    3    4    1 -0.001435529658  0.003464382743
   -5   -3    3    1    2 -0.001179665590  0.000077096458
   -5   -3    3    2    2 -0.000952583386 -0.000156655916
   -5   -3    3    3    2  0.001434908602  0.003463907644
   -5   -3    3    4    2  0.000472907011 -0.000395595278
   -5   -3    3    1    3  0.001765298066 -0.001177172801
   -5   -3    3    2    3  0.000312955156 -0.000961379218
   -5   -3    3    3    3  0.000438784608 -0.000111853175
   -5   -3    3    4    3  0.000261570212  0.001225606825
   -5   -3    3    1    4 -0.000312812863 -0.000961604143
   -5   -3    3    2    4  0.001765294164  0.001177469743
   -5   -3    3    3    4 -0.000260779174  0.001225137617
   -5   -3    3    4    4  0.000438646776  0.000111814950
   -5   -3    4    1    1  0.000137738485 -0.000881203476
   -5   -3    4    2    1 -0.000286949699  0.000336268479
   -5   -3    4    3    1 -0.000055843330  0.001634889129
   -5   -3    4    4    1 -0.000483215148 -0.000241859570
   -5   -3    4    1    2  0.000286984045  0.000336591961
   -5   -3    4    2    2  0.000137927595  0.000881273052
   -5   -3    4    3    2  0.000482530236 -0.000241245666
   -5   -3    4    4    2 -0.000055479824 -0.001634604014
   -5   -3    4    1    3 -0.001791499038  0.000214654058
   -5   -3    4    2    3  0.000559245306 -0.001077998338
   -5   -3    4    3    3  0.000348909773  0.000247507608
   -5   -3    4    4    3 -0.001069235120 -0.000412370916
   -5   -3    4    1    4 -0.000559045244 -0.001077597156
   -5   -3    4    2    4 -0.001790807836 -0.000214939374
   -5   -3    4    3    4  0.001068983417 -0.000411805218
   -5   -3    4    4    4  0.000348688372 -0.000247577397
   -5   -3    5    1    1  0.000051808912  0.000406377636
   -5   -3    5    2    1  0.000968641541  0.000066707761
   -5   -3    5    3    1 -0.000037503724  0.000895524402
   -5   -3    5    4    1 -0.000631211689 -0.000180466548
   -5   -3    5    1    2 -0.000968683502  0.000067523677
   -5   -3    5    2    2  0.000051590212 -0.000406225631
   -5   -3    5    3    2  0.000631066032 -0.000180502009
   -5   -3    5    4    2 -0.000036802545 -0.000896333357
   -5   -3    5    1    3  0.001100505140 -0.000328204644
   -5   -3    5    2    3 -0.000258049397 -0.000314648039
   -5   -3    5    3    3 -0.000220586327  0.000987638544
   -5   -3    5    4    3 -0.000295080459  0.000300135421
   -5   -3    5    1    4  0.000258895494 -0.000313984371
   -5   -3    5    2    4  0.001101246201  0.000328141145
   -5   -3    5    3    4  0.000294747859  0.000300739725
   -5   -3    5    4    4 -0.000220810459 -0.000987790095
   -5   -2   -5    1    1 -0.000187644474  0.000143518207
   -5   -2   -5    2    1 -0.000080376596 -0.000071950899
   -5   -2   -5    3    1  0.000547749333  0.000718778635
   -5   -2   -5    4    1  0.000410797073  0.000363300514
   -5   -2   -5    1    2  0.000080064010 -0.000072398192
   -5   -2   -5    2    2 -0.000188358318 -0.000144057073
   -5   -2   -5    3    2 -0.000410549396  0.000362210072
   -5   -2   -5    4    2  0.000547140379 -0.000719186021
   -5   -2   -5    1    3  0.001325523107 -0.000379293315
   -5   -2   -5    2    3 -0.000391630756 -0.000504000644
   -5   -2   -5    3    3  0.000019045669 -0.000215396930
   -5   -2   -5    4    3 -0.000723214414  0.001090909509
   -5   -2   -5    1    4  0.000392112245 -0.000503836915
   -5   -2   -5    2    4  0.001325823976  0.000379173742
   -5   -2   -5    3    4  0.000723874811  0.001091124887
   -5   -2   -5    4    4  0.000018960238  0.000215936087
   -5   -2   -4    1    1  0.000562815758 -0.000320611970
   -5   -2   -4    2    1 -0.000367464417  0.000332955046
   -5   -2   -4    3    1 -0.001645898537 -0.000358467430
   -5   -2   -4    4    1  0.000164699182  0.000162911110
   -5   -2   -4    1    2  0.000367822057  0.000333615370
   -5   -2   -4    2    2  0.000562049059  0.000321544128
   -5   -2   -4    3    2 -0.000164691238  0.000162897821
   -5   -2   -4    4    2 -0.001646284474  0.000357823778
   -5   -2   -4    1    3 -0.000676285975  0.000780886891
   -5   -2   -4    2    3  0.000319111918 -0.001298286213
   -5   -2   -4    3    3 -0.000562375950 -0.002110784433
   -5   -2   -4    4    3 -0.000049863357 -0.000751463764
   -5   -2   -4    1    4 -0.000319227723 -0.001298084055
   -5   -2   -4    2    4 -0.000677097110 -0.000780896514
   -5   -2   -4    3    4  0.000050378521 -0.000752123831
   -5   -2   -4    4    4 -0.000563309146  0.002109851818
   -5   -2   -3    1    1 -0.000548124945 -0.000568634740
   -5   -2   -3    2    1  0.000178790266  0.001231916360
   -5   -2   -3    3    1  0.002296121970  0.000115559805
   -5   -2   -3    4    1  0.000747592866  0.000819141169
   -5   -2   -3    1    2 -0.000179327946  0.001231687893
   -5   -2   -3    2    2 -0.000548091964  0.000568543974
   -5   -2   -3    3    2 -0.000747738124  0.000818590921
   -5   -2   -3    4    2  0.002296000190 -0.000115015207
   -5   -2   -3    1    3  0.002682092763 -0.000687033398
   -5   -2   -3    2    3 -0.002237210862 -0.000314509214
   -5   -2   -3    3    3  0.000372868441 -0.003561909354
   -5   -2   -3    4    3 -0.000313498332 -0.000605670752
   -5   -2   -3    1    4  0.002237513650 -0.000314854680
   -5   -2   -3    2    4  0.002682167191  0.000687297591
   -5   -2   -3    3    4  0.000314034331 -0.000605925509
   -5   -2   -3    4    4  0.000373859734  0.003561999803
   -5   -2   -2    1    1  0.002035582776  0.000115458937
   -5   -2   -2    2    1 -0.001069810284  0.000657390640
   -5   -2   -2    3    1 -0.000232217654 -0.001046485186
   -5   -2   -2    4    1 -0.000622635001 -0.001331144951
   -5   -2   -2    1    2  0.001069860656  0.000656980200
   -5   -2   -2    2    2  0.002035902456 -0.000115287683
   -5   -2   -2    3    2  0.000621508022 -0.001331290274
   -5   -2   -2    4    2 -0.000231769818  0.001046720756
   -5   -2   -2    1    3 -0.004575129358  0.000051959648
   -5   -2   -2    2    3 -0.002023372956  0.000051920497
   -5   -2   -2    3    3 -0.001754551687 -0.003439940953
   -5   -2   -2    4    3 -0.002901710167 -0.000619729557
   -5   -2   -2    1    4  0.002023466817  0.000052164325
   -5   -2   -2    2    4 -0.004575420454 -0.000052589401
   -5   -2   -2    3    4  0.002901897610 -0.000619055601
   -5   -2   -2    4    4 -0.001754214465  0.003439768406
   -5   -2   -1    1    1 -0.000034290169  0.001239024361
   -5   -2   -1    2    1 -0.001041191091  0.001949030793
   -5   -2   -1    3    1  0.000314739489  0.000055510706
   -5   -2   -1    4    1  0.001580278088  0.001581613838
   -5   -2   -1    1    2  0.001041652245  0.001948233322
   -5   -2   -1    2    2 -0.000035145691 -0.001238955762
   -5   -2   -1    3    2 -0.001580256657  0.001581681667
   -5   -2   -1    4    2  0.000313955291 -0.000054859378
   -5   -2   -1    1    3  0.000102414509 -0.000782066182
   -5   -2   -1    2    3  0.000020139061  0.001407971945
   -5   -2   -1    3    3 -0.000209037293 -0.002911949816
   -5   -2   -1    4    3 -0.001354704201 -0.001760317019
   -5   -2   -1    1    4 -0.000020544381  0.001407438842
   -5   -2   -1    2    4  0.000102231334  0.000781032408
   -5   -2   -1    3    4  0.001355305988 -0.001760408538
   -5   -2   -1    4    4 -0.000209038887  0.002911880259
   -5   -2    0    1    1  0.000670717598 -0.000780756837
   -5   -2    0    2    1 -0.003146118764  0.001898948581
   -5   -2    0    3    1 -0.001407818577  0.001019304894
   -5   -2    0    4    1 -0.001542359186  0.000171752547
   -5   -2    0    1    2  0.003146753647  0.001898268890
   -5   -2    0    2    2  0.000670431583  0.000780897095
   -5   -2    0    3    2  0.001542115364  0.000171903795
   -5   -2    0    4    2 -0.001408003226 -0.001019782181
   -5   -2    0    1    3 -0.011746022340  0.002074223670
   -5   -2    0    2    3 -0.004014414513  0.001795259627
   -5   -2    0    3    3 -0.002528853027 -0.002328090983
   -5   -2    0    4    3 -0.001994296053  0.000142488952
   -5   -2    0    1    4  0.004013237972  0.001795364371
   -5   -2    0    2    4 -0.011746448715 -0.002074152170
   -5   -2    0    3    4  0.001994632266  0.000142347454
   -5   -2    0    4    4 -0.002529051320  0.002327948167
   -5   -2    1    1    1 -0.000555823613 -0.000931360438
   -5   -2    1    2    1 -0.002487194958 -0.002396281254
   -5   -2    1    3    1  0.002972943356  0.000118423287
   -5   -2    1    4    1  0.001520182670 -0.001278418822
   -5   -2    1    1    2  0.002487248379 -0.002396340773
   -5   -2    1    2    2 -0.000556522270  0.000931462888
   -5   -2    1    3    2 -0.001520750688 -0.001277599339
   -5   -2    1    4    2  0.002972782865 -0.000118570973
   -5   -2    1    1    3  0.007897911971  0.003083558918
   -5   -2    1    2    3 -0.000069473218  0.003127375280
   -5   -2    1    3    3 -0.000464171240 -0.003062753062
   -5   -2    1    4    3 -0.000446281550 -0.001865311327
   -5   -2    1    1    4  0.000069943119  0.003126951941
   -5   -2    1    2    4  0.007898362327 -0.003083454668
   -5   -2    1    3    4  0.000446215605 -0.001864981964
   -5   -2    1    4    4 -0.000464708589  0.003062649506
   -5   -2    2    1    1  0.000908427649  0.001558859107
   -5   -2    2    2    1 -0.000048206371  0.001821279824
   -5   -2    2    3    1  0.002238950384  0.000140854423
   -5   -2    2    4    1  0.001441219506  0.000183974706
   -5   -2    2    1    2  0.000048528358  0.001821263349
   -5   -2    2    2    2  0.000908651980 -0.001558880133
   -5   -2    2    3    2 -0.001441213173  0.000184762042
   -5   -2    2    4    2  0.002239401866 -0.000141341626
   -5   -2    2    1    3 -0.000869961488  0.003475558150
   -5   -2    2    2    3  0.002254069758 -0.001604261164
   -5   -2    2    3    3 -0.000149025332  0.000119934792
   -5   -2    2    4    3 -0.001365617686 -0.001134113385
   -5   -2    2    1    4 -0.002253893964 -0.001604126129
   -5   -2    2    2    4 -0.000869709737 -0.003475902564
   -5   -2    2    3    4  0.001365909813 -0.001133220095
   -5   -2    2    4    4 -0.000149490435 -0.000119912793
   -5   -2    3    1    1 -0.000041276481  0.001092663347
   -5   -2    3    2    1 -0.000164157495 -0.000803459103
   -5   -2    3    3    1 -0.000166829913 -0.000692447615
   -5   -2    3    4    1  0.001647562718 -0.000302646448
   -5   -2    3    1    2  0.000164398688 -0.000803524722
   -5   -2    3    2    2 -0.000041663710 -0.001093402767
   -5   -2    3    3    2 -0.001647579514 -0.000302525747
   -5   -2    3    4    2 -0.000167255547  0.000692404808
   -5   -2    3    1    3  0.002049263846  0.000703146537
   -5   -2    3    2    3 -0.000388217161  0.000436431890
   -5   -2    3    3    3 -0.000472272038 -0.000302670933
   -5   -2    3    4    3 -0.001886480692  0.000323262758
   -5   -2    3    1    4  0.000388178042  0.000436534482
   -5   -2    3    2    4  0.002049254885 -0.000702214711
   -5   -2    3    3    4  0.001885527555  0.000323296346
   -5   -2    3    4    4 -0.000473084782  0.000303410930
   -5   -2    4    1    1  0.000218156444 -0.000201131487
   -5   -2    4    2    1 -0.000388318926  0.000512142874
   -5   -2    4    3    1 -0.001677900388  0.000568683289
   -5   -2    4    4    1  0.000706265007  0.000219026661
   -5   -2    4    1    2  0.000389143582  0.000511805588
   -5   -2    4    2    2  0.000218310376  0.000201249227
   -5   -2    4    3    2 -0.000706453372  0.000219049278
   -5   -2    4    4    2 -0.001678394361 -0.000568351490
   -5   -2    4    1    3 -0.001975807099  0.000517577722
   -5   -2    4    2    3  0.001827573290 -0.000418229622
   -5   -2    4    3    3  0.000268262863  0.000647278684
   -5   -2    4    4    3  0.000460557771  0.000290864093
   -5   -2    4    1    4 -0.001826779506 -0.000417448455
   -5   -2    4    2    4 -0.001975941091 -0.000517538936
   -5   -2    4    3    4 -0.000460812474  0.000290213612
   -5   -2    4    4    4  0.000268530931 -0.000647396869
   -5   -2    5    1    1 -0.000187644474  0.000143518207
   -5   -2    5    2    1 -0.000080376596 -0.000071950899
   -5   -2    5    3    1  0.000547749333  0.000718778635
   -5   -2    5    4    1  0.000410797073  0.000363300514
   -5   -2    5    1    2  0.000080064010 -0.000072398192
   -5   -2    5    2    2 -0.000188358318 -0.000144057073
   -5   -2    5    3    2 -0.000410549396  0.000362210072
   -5   -2    5    4    2  0.000547140379 -0.000719186021
   -5   -2    5    1    3  0.001325523107 -0.000379293315
   -5   -2    5    2    3 -0.000391630756 -0.000504000644
   -5   -2    5    3    3  0.000019045669 -0.000215396930
   -5   -2    5    4    3 -0.000723214414  0.001090909509
   -5   -2    5    1    4  0.000392112245 -0.000503836915
   -5   -2    5    2    4  0.001325823976  0.000379173742
   -5   -2    5    3    4  0.000723874811  0.001091124887
   -5   -2    5    4    4  0.000018960238  0.000215936087
   -5   -1   -5    1    1 -0.000242474568  0.000138288978
   -5   -1   -5    2    1  0.001113226383 -0.000770495676
   -5   -1   -5    3    1  0.000113877799 -0.001331707785
   -5   -1   -5    4    1 -0.000514713463  0.000238104279
   -5   -1   -5    1    2 -0.001113431547 -0.000770342506
   -5   -1   -5    2    2 -0.000242847550 -0.000137444897
   -5   -1   -5    3    2  0.000515042704  0.000238094394
   -5   -1   -5    4    2  0.000114733619  0.001331913279
   -5   -1   -5    1    3 -0.000206611512 -0.001277414873
   -5   -1   -5    2    3  0.000154646902  0.000679297383
   -5   -1   -5    3    3  0.000358510935 -0.000837804029
   -5   -1   -5    4    3  0.001480237025  0.000203726349
   -5   -1   -5    1    4 -0.000155206227  0.000679804182
   -5   -1   -5    2    4 -0.000206976375  0.001276879055
   -5   -1   -5    3    4 -0.001480568817  0.000203174994
   -5   -1   -5    4    4  0.000358004717  0.000836959709
   -5   -1   -4    1    1  0.000012028165  0.001169597321
   -5   -1   -4    2    1  0.000393305582 -0.000446397983
   -5   -1   -4    3    1 -0.000705496469 -0.001206003772
   -5   -1   -4    4    1  0.000628908621 -0.001914965309
   -5   -1   -4    1    2 -0.000393214601 -0.000446569321
   -5   -1   -4    2    2  0.000012834572 -0.001168732282
   -5   -1   -4    3    2 -0.000629218171 -0.001914949733
   -5   -1   -4    4    2 -0.000705428395  0.001206223399
   -5   -1   -4    1    3  0.000402317974 -0.001029587725
   -5   -1   -4    2    3 -0.000658952666  0.001471499821
   -5   -1   -4    3    3 -0.000026436412  0.001710486628
   -5   -1   -4    4    3  0.001487367950  0.000172598255
   -5   -1   -4    1    4  0.000658736666  0.001471389868
   -5   -1   -4    2    4  0.000402449795  0.001029333835
   -5   -1   -4    3    4 -0.001487481051  0.000173467645
   -5   -1   -4    4    4 -0.000026380650 -0.001711350942
   -5   -1   -3    1    1 -0.000686646153  0.000083974808
   -5   -1   -3    2    1  0.000113109155 -0.001241309889
   -5   -1   -3    3    1 -0.001465237371 -0.001349354897
   -5   -1   -3    4    1 -0.000610871259 -0.000772857811
   -5   -1   -3    1    2 -0.000113001669 -0.001240877528
   -5   -1   -3    2    2 -0.000686351881 -0.000084271251
   -5   -1   -3    3    2  0.000610648095 -0.000772937000
   -5   -1   -3    4    2 -0.001465202158  0.001349196486
   -5   -1   -3    1    3 -0.000817193628  0.001116130530
   -5   -1   -3    2    3  0.002116503036 -0.001187070159
   -5   -1   -3    3    3  0.001035879841  0.002345849838
   -5   -1   -3    4    3  0.000927051472  0.000375155798
   -5   -1   -3    1    4 -0.002116356290 -0.001187522536
   -5   -1   -3    2    4 -0.000816592999 -0.001115719813
   -5   -1   -3    3    4 -0.000927434943  0.000375320983
   -5   -1   -3    4    4  0.001036016356 -0.002345553694
   -5   -1   -2    1    1 -0.000491767881  0.000253863534
   -5   -1   -2    2    1  0.001034541188 -0.001504631228
   -5   -1   -2    3    1 -0.000753875950  0.000525519417
   -5   -1   -2    4    1 -0.000740587458  0.001235200696
   -5   -1   -2    1    2 -0.001034439163 -0.001504632346
   -5   -1   -2    2    2 -0.000491586750 -0.000253212674
   -5   -1   -2    3    2  0.000740759385  0.001235810970
   -5   -1   -2    4    2 -0.000753476352 -0.000525261792
   -5   -1   -2    1    3  0.002104361122 -0.000068584786
   -5   -1   -2    2    3  0.002100637845 -0.001459649073
   -5   -1   -2    3    3  0.002133341013 -0.000005946466
   -5   -1   -2    4    3  0.001620903239 -0.000508335075
   -5   -1   -2    1    4 -0.002101033302 -0.001459966420
   -5   -1   -2    2    4  0.002104270411  0.000068537180
   -5   -1   -2    3    4 -0.001621066837 -0.000508365824
   -5   -1   -2    4    4  0.002132881439  0.000005297036
   -5   -1   -1    1    1  0.000748983168 -0.001884787469
   -5   -1   -1    2    1  0.001550638065  0.001489927961
   -5   -1   -1    3    1 -0.005244323108 -0.002430017083
   -5   -1   -1    4    1  0.001556514427 -0.000952478742
   -5   -1   -1    1    2 -0.001550185016  0.001490505857
   -5   -1   -1    2    2  0.000749113188  0.001885081541
   -5   -1   -1    3    2 -0.001557208490 -0.000951485362
   -5   -1   -1    4    2 -0.005244425470  0.002430244793
   -5   -1   -1    1    3  0.006831653245  0.000897735984
   -5   -1   -1    2    3 -0.001885655223 -0.000815727894
   -5   -1   -1    3    3 -0.000800025907  0.000710056010
   -5   -1   -1    4    3  0.002710609972 -0.001282072331
   -5   -1   -1    1    4  0.001885364010 -0.000816415678
   -5   -1   -1    2    4  0.006832513245 -0.000897293946
   -5   -1   -1    3    4 -0.002710613022 -0.001281531815
   -5   -1   -1    4    4 -0.000799786635 -0.000710351232
   -5   -1    0    1    1  0.001995501650 -0.002339439163
   -5   -1    0    2    1  0.004432000274 -0.001768485808
   -5   -1    0    3    1 -0.003150978296 -0.003037408818
   -5   -1    0    4    1  0.003729586473  0.006618556928
   -5   -1    0    1    2 -0.004432251238 -0.001767384821
   -5   -1    0    2    2  0.001995654304  0.002339834630
   -5   -1    0    3    2 -0.003729199323  0.006619014284
   -5   -1    0    4    2 -0.003150264036  0.003037656375
   -5   -1    0    1    3  0.002939115919  0.002308678954
   -5   -1    0    2    3  0.004452933147 -0.004166861363
   -5   -1    0    3    3  0.000330306872  0.001401337713
   -5   -1    0    4    3 -0.001025651467  0.001827937463
   -5   -1    0    1    4 -0.004452869260 -0.004168185956
   -5   -1    0    2    4  0.002939414344 -0.002308142447
   -5   -1    0    3    4  0.001026160804  0.001827686259
   -5   -1    0    4    4  0.000330591344 -0.001401733059
   -5   -1    1    1    1  0.000324955622  0.001707953785
   -5   -1    1    2    1 -0.000134207802 -0.000963247387
   -5   -1    1    3    1 -0.004121992631  0.003284512016
   -5   -1    1    4    1  0.000243811773 -0.002898943291
   -5   -1    1    1    2  0.000134032635 -0.000962565382
   -5   -1    1    2    2  0.000324982547 -0.001707912085
   -5   -1    1    3    2 -0.000243751321 -0.002899428078
   -5   -1    1    4    2 -0.004121929347 -0.003284133189
   -5   -1    1    1    3  0.000168452197 -0.002679237787
   -5   -1    1    2    3 -0.002127279035  0.001608954337
   -5   -1    1    3    3 -0.001013689878 -0.000102228195
   -5   -1    1    4    3 -0.002027821137 -0.000589506880
   -5   -1    1    1    4  0.002127672448  0.001608811074
   -5   -1    1    2    4  0.000167663346  0.002679746431
   -5   -1    1    3    4  0.002028384204 -0.000590143095
   -5   -1    1    4    4 -0.001013232812  0.000102186232
   -5   -1    2    1    1  0.001990001946 -0.001484236894
   -5   -1    2    2    1  0.000055802197  0.000317175074
   -5   -1    2    3    1  0.001796228632 -0.002087363016
   -5   -1    2    4    1 -0.000456965972 -0.002455783668
   -5   -1    2    1    2 -0.000055776576  0.000317342226
   -5   -1    2    2    2  0.001989460790  0.001484903530
   -5   -1    2    3    2  0.000457586344 -0.002455141932
   -5   -1    2    4    2  0.001796000234  0.002087065947
   -5   -1    2    1    3 -0.000325325280 -0.001154505426
   -5   -1    2    2    3 -0.001604187355  0.001553917287
   -5   -1    2    3    3 -0.001340691842  0.000846139308
   -5   -1    2    4    3  0.001297877957 -0.000343812924
   -5   -1    2    1    4  0.001604534344  0.001554018328
   -5   -1    2    2    4 -0.000324853922  0.001155009664
   -5   -1    2    3    4 -0.001296936554 -0.000344506879
   -5   -1    2    4    4 -0.001341234335 -0.000846805493
   -5   -1    3    1    1  0.000515548628  0.000967607915
   -5   -1    3    2    1  0.000777959481  0.000234696769
   -5   -1    3    3    1  0.000129026319 -0.000757959319
   -5   -1    3    4    1 -0.003204144957  0.001848162304
   -5   -1    3    1    2 -0.000778321222  0.000235006634
   -5   -1    3    2    2  0.000515597624 -0.000967379833
   -5   -1    3    3    2  0.003204131654  0.001848935992
   -5   -1    3    4    2  0.000129107929  0.000758105826
   -5   -1    3    1    3 -0.000390597684 -0.000918005676
   -5   -1    3    2    3  0.001004539930 -0.000665272129
   -5   -1    3    3    3  0.000702052537 -0.000380210280
   -5   -1    3    4    3  0.001326335474 -0.001718914614
   -5   -1    3    1    4 -0.001004806676 -0.000665411411
   -5   -1    3    2    4 -0.000390934702  0.000918849821
   -5   -1    3    3    4 -0.001325658213 -0.001718579618
   -5   -1    3    4    4  0.000701599605  0.000379981950
   -5   -1    4    1    1  0.000647651614  0.000206178342
   -5   -1    4    2    1  0.000267263174 -0.000369555855
   -5   -1    4    3    1 -0.000171818883 -0.002972273084
   -5   -1    4    4    1  0.000638331266 -0.000491476214
   -5   -1    4    1    2 -0.000268293244 -0.000370208059
   -5   -1    4    2    2  0.000647527303 -0.000207108482
   -5   -1    4    3    2 -0.000638793343 -0.000491967586
   -5   -1    4    4    2 -0.000171457239  0.002972547307
   -5   -1    4    1    3  0.000151933431 -0.000905889499
   -5   -1    4    2    3 -0.000422020735  0.001253640739
   -5   -1    4    3    3 -0.000322367797 -0.001167171713
   -5   -1    4    4    3  0.001659164475  0.000785754657
   -5   -1    4    1    4  0.000421737112  0.001252690865
   -5   -1    4    2    4  0.000151692041  0.000905686648
   -5   -1    4    3    4 -0.001658054961  0.000786407833
   -5   -1    4    4    4 -0.000322109634  0.001168102621
   -5   -1    5    1    1 -0.000242474568  0.000138288978
   -5   -1    5    2    1  0.001113226383 -0.000770495676
   -5   -1    5    3    1  0.000113877799 -0.001331707785
   -5   -1    5    4    1 -0.000514713463  0.000238104279
   -5   -1    5    1    2 -0.001113431547 -0.000770342506
   -5   -1    5    2    2 -0.000242847550 -0.000137444897
   -5   -1    5    3    2  0.000515042704  0.000238094394
   -5   -1    5    4    2  0.000114733619  0.001331913279
   -5   -1    5    1    3 -0.000206611512 -0.001277414873
   -5   -1    5    2    3  0.000154646902  0.000679297383
   -5   -1    5    3    3  0.000358510935 -0.000837804029
   -5   -1    5    4    3  0.001480237025  0.000203726349
   -5   -1    5    1    4 -0.000155206227  0.000679804182
   -5   -1    5    2    4 -0.000206976375  0.001276879055
   -5   -1    5    3    4 -0.001480568817  0.000203174994
   -5   -1    5    4    4  0.000358004717  0.000836959709
   -5    0   -5    1    1 -0.000454802495  0.000000000000
   -5    0   -5    2    1 -0.000000031992 -0.000000098020
   -5    0   -5    3    1  0.001641348184  0.000666891084
   -5    0   -5    4    1  0.000616044324 -0.000033300618
   -5    0   -5    1    2 -0.000000031992  0.000000098020
   -5    0   -5    2    2 -0.000453003194  0.000000000000
   -5    0   -5    3    2 -0.000617030876 -0.000033484426
   -5    0   -5    4    2  0.001640952323 -0.000667095632
   -5    0   -5    1    3  0.001641348184 -0.000666891084
   -5    0   -5    2    3 -0.000617030876  0.000033484426
   -5    0   -5    3    3  0.000259860482  0.000000000000
   -5    0   -5    4    3 -0.000000402788 -0.000000218883
   -5    0   -5    1    4  0.000616044324  0.000033300618
   -5    0   -5    2    4  0.001640952323  0.000667095632
   -5    0   -5    3    4 -0.000000402788  0.000000218883
   -5    0   -5    4    4  0.000260243743  0.000000000000
   -5    0   -4    1    1  0.000373495335  0.000440921027
   -5    0   -4    2    1 -0.000248796273  0.000719192221
   -5    0   -4    3    1  0.000598834319 -0.000284787430
   -5    0   -4    4    1 -0.000108126426  0.000580834684
   -5    0   -4    1    2  0.000249267098  0.000719009140
   -5    0   -4    2    2  0.000373012632 -0.000441539233
   -5    0   -4    3    2  0.000108607499  0.000581038936
   -5    0   -4    4    2  0.000599101623  0.000284359670
   -5    0   -4    1    3 -0.001514272516  0.000110692545
   -5    0   -4    2    3  0.001260893446  0.000097330339
   -5    0   -4    3    3 -0.000283553873  0.000054873127
   -5    0   -4    4    3  0.000386232747 -0.000879414827
   -5    0   -4    1    4 -0.001260492704  0.000098491339
   -5    0   -4    2    4 -0.001514307946 -0.000110357170
   -5    0   -4    3    4 -0.000387130923 -0.000879566204
   -5    0   -4    4    4 -0.000283608846 -0.000054254663
   -5    0   -3    1    1 -0.000721035075  0.000252376579
   -5    0   -3    2    1  0.001166665642  0.000874144217
   -5    0   -3    3    1  0.000782733603  0.000470483720
   -5    0   -3    4    1  0.001618922060 -0.001072561410
   -5    0   -3    1    2 -0.001166288985  0.000874514921
   -5    0   -3    2    2 -0.000721153594 -0.000252789614
   -5    0   -3    3    2 -0.001619780927 -0.001072301214
   -5    0   -3    4    2  0.000781994762 -0.000470773096
   -5    0   -3    1    3 -0.000302676251 -0.001439067417
   -5    0   -3    2    3 -0.000819039415  0.000316922133
   -5    0   -3    3    3  0.000400162869 -0.000146968764
   -5    0   -3    4    3  0.001291380002  0.000195910042
   -5    0   -3    1    4  0.000819101851  0.000316410573
   -5    0   -3    2    4 -0.000303027529  0.001439630377
   -5    0   -3    3    4 -0.001291305344  0.000195494658
[...]
    6    2   -5    1    3 -0.000734999919  0.000229679832
    6    2   -5    2    3  0.000879497160  0.000518792928
    6    2   -5    3    3 -0.000680166663 -0.000418819221
    6    2   -5    4    3  0.000757814137  0.000810638716
    6    2   -5    1    4 -0.000879428035  0.000518840909
    6    2   -5    2    4 -0.000735182351 -0.000229748325
    6    2   -5    3    4 -0.000757273142  0.000810228417
    6    2   -5    4    4 -0.000679659449  0.000419125847
    6    2   -4    1    1 -0.001543422996 -0.000631369634
    6    2   -4    2    1  0.000609400347 -0.000239012055
    6    2   -4    3    1  0.001180004185  0.000520754263
    6    2   -4    4    1  0.001122843758  0.000851738965
    6    2   -4    1    2 -0.000609405819 -0.000239399724
    6    2   -4    2    2 -0.001544647718  0.000631242028
    6    2   -4    3    2 -0.001122160138  0.000852311675
    6    2   -4    4    2  0.001180346077 -0.000520949357
    6    2   -4    1    3  0.000375743235 -0.000332553870
    6    2   -4    2    3  0.000866669584 -0.000931791834
    6    2   -4    3    3  0.000712688815  0.000175994587
    6    2   -4    4    3  0.000781683322  0.000582524958
    6    2   -4    1    4 -0.000866164288 -0.000931623309
    6    2   -4    2    4  0.000375185060  0.000332979271
    6    2   -4    3    4 -0.000782103852  0.000582165688
    6    2   -4    4    4  0.000712465189 -0.000175867361
    6    2   -3    1    1  0.000783664904  0.001111463770
    6    2   -3    2    1  0.000584627550 -0.000102778710
    6    2   -3    3    1  0.000700476319  0.000410082161
    6    2   -3    4    1  0.000103726981  0.000514129388
    6    2   -3    1    2 -0.000584307377 -0.000102694319
    6    2   -3    2    2  0.000784800180 -0.001111294566
    6    2   -3    3    2 -0.000103195586  0.000513767307
    6    2   -3    4    2  0.000700120080 -0.000410175732
    6    2   -3    1    3 -0.000152990862 -0.000430375767
    6    2   -3    2    3 -0.000645586031  0.000247582178
    6    2   -3    3    3 -0.001334062194 -0.000877940257
    6    2   -3    4    3 -0.000710696003 -0.000050761542
    6    2   -3    1    4  0.000645440591  0.000247549298
    6    2   -3    2    4 -0.000152704130  0.000430233343
    6    2   -3    3    4  0.000710506426 -0.000050649069
    6    2   -3    4    4 -0.001333209709  0.000877772189
    6    2   -2    1    1 -0.000191675509 -0.001283525395
    6    2   -2    2    1  0.001339073140 -0.000523385781
    6    2   -2    3    1  0.002686258330  0.000520940346
    6    2   -2    4    1  0.001870105662  0.001917852386
    6    2   -2    1    2 -0.001339171991 -0.000523405963
    6    2   -2    2    2 -0.000190323365  0.001283868037
    6    2   -2    3    2 -0.001870697579  0.001918221348
    6    2   -2    4    2  0.002685740721 -0.000521529998
    6    2   -2    1    3  0.001321376799 -0.001332162890
    6    2   -2    2    3 -0.000912465044 -0.003020513357
    6    2   -2    3    3  0.001581391537 -0.000769332196
    6    2   -2    4    3  0.000257998264 -0.001779434922
    6    2   -2    1    4  0.000911757892 -0.003021562091
    6    2   -2    2    4  0.001321576606  0.001331553017
    6    2   -2    3    4 -0.000258296142 -0.001779204500
    6    2   -2    4    4  0.001580691679  0.000768988588
    6    2   -1    1    1 -0.001510504573  0.001056251966
    6    2   -1    2    1 -0.001062214015 -0.001219589982
    6    2   -1    3    1  0.000746793754 -0.000451965343
    6    2   -1    4    1 -0.002032715378  0.000055676880
    6    2   -1    1    2  0.001062431928 -0.001219833816
    6    2   -1    2    2 -0.001510741215 -0.001055983450
    6    2   -1    3    2  0.002033152098  0.000056230318
    6    2   -1    4    2  0.000747097196  0.000452247956
    6    2   -1    1    3 -0.002338470601  0.000996434798
    6    2   -1    2    3 -0.000634268850  0.000965170620
    6    2   -1    3    3 -0.000336652479  0.002477656374
    6    2   -1    4    3  0.001470169594 -0.001484441200
    6    2   -1    1    4  0.000633399796  0.000964521563
    6    2   -1    2    4 -0.002338078250 -0.000996666621
    6    2   -1    3    4 -0.001470294926 -0.001483523974
    6    2   -1    4    4 -0.000336213178 -0.002477925228
    6    2    0    1    1 -0.003155102924 -0.000226351158
    6    2    0    2    1  0.002241026762  0.001883079605
    6    2    0    3    1 -0.000914408454  0.002312390115
    6    2    0    4    1 -0.001259447200 -0.002708320996
    6    2    0    1    2 -0.002241388080  0.001883339576
    6    2    0    2    2 -0.003154958696  0.000226711606
    6    2    0    3    2  0.001259293589 -0.002708654323
    6    2    0    4    2 -0.000913742337 -0.002312710320
    6    2    0    1    3  0.001352740434 -0.001257542749
    6    2    0    2    3 -0.002005284058 -0.002547663459
    6    2    0    3    3  0.001067208735  0.000441788375
    6    2    0    4    3  0.000528649852 -0.002452671894
    6    2    0    1    4  0.002005624680 -0.002547531956
    6    2    0    2    4  0.001353376665  0.001257982650
    6    2    0    3    4 -0.000528763732 -0.002451803864
    6    2    0    4    4  0.001067348476 -0.000442148943
    6    2    1    1    1  0.001894879101  0.000233967701
    6    2    1    2    1  0.001122157452  0.001302804509
    6    2    1    3    1 -0.000656390874 -0.003753888152
    6    2    1    4    1 -0.002527596922  0.000345881271
    6    2    1    1    2 -0.001122208988  0.001302649427
    6    2    1    2    2  0.001894809303 -0.000233997112
    6    2    1    3    2  0.002528317543  0.000345950012
    6    2    1    4    2 -0.000656435142  0.003753507012
    6    2    1    1    3  0.000362712481 -0.000051351778
    6    2    1    2    3 -0.000674577882 -0.003837349929
    6    2    1    3    3 -0.000288265200 -0.002255790207
    6    2    1    4    3  0.001367435346 -0.000354911237
    6    2    1    1    4  0.000674688597 -0.003837161203
    6    2    1    2    4  0.000363239708  0.000051245444
    6    2    1    3    4 -0.001367119535 -0.000353809054
    6    2    1    4    4 -0.000288411586  0.002255820466
    6    2    2    1    1 -0.001757542387 -0.000080135968
    6    2    2    2    1 -0.000045089262 -0.000268205730
    6    2    2    3    1 -0.002955783699  0.001407945414
    6    2    2    4    1  0.000970012323 -0.001446189485
    6    2    2    1    2  0.000044364801 -0.000267718466
    6    2    2    2    2 -0.001757414063  0.000080634599
    6    2    2    3    2 -0.000970394870 -0.001445695194
    6    2    2    4    2 -0.002955558366 -0.001408101615
    6    2    2    1    3  0.002723298452 -0.000295801585
    6    2    2    2    3 -0.001528425988 -0.001053789546
    6    2    2    3    3  0.001277187118  0.000232059381
    6    2    2    4    3  0.000167257762  0.000147816743
    6    2    2    1    4  0.001528673055 -0.001054295395
    6    2    2    2    4  0.002723124841  0.000295601617
    6    2    2    3    4 -0.000166785550  0.000147933055
    6    2    2    4    4  0.001276293017 -0.000232557168
    6    2    3    1    1  0.001364781497 -0.000078247842
    6    2    3    2    1  0.000858561918  0.000727487099
    6    2    3    3    1  0.000131720270 -0.001527263278
    6    2    3    4    1  0.000284342409 -0.001125402558
    6    2    3    1    2 -0.000858039412  0.000727309685
    6    2    3    2    2  0.001364870744  0.000077246085
    6    2    3    3    2 -0.000284760933 -0.001125695553
    6    2    3    4    2  0.000132050386  0.001527919008
    6    2    3    1    3  0.000283354539  0.000513250724
    6    2    3    2    3 -0.000271366759 -0.000543150232
    6    2    3    3    3 -0.001509711570 -0.001848325057
    6    2    3    4    3  0.000922312293  0.000612044354
    6    2    3    1    4  0.000271792004 -0.000543369917
    6    2    3    2    4  0.000283153885 -0.000513118845
    6    2    3    3    4 -0.000922472970  0.000612501523
    6    2    3    4    4 -0.001509113465  0.001849327997
    6    2    4    1    1 -0.001165017841 -0.000336541105
    6    2    4    2    1 -0.000754906954 -0.000552571910
    6    2    4    3    1 -0.000722478028  0.000265069752
    6    2    4    4    1  0.001570243120  0.000556303524
    6    2    4    1    2  0.000754511727 -0.000552264388
    6    2    4    2    2 -0.001165057063  0.000338024685
    6    2    4    3    2 -0.001570021606  0.000556332093
    6    2    4    4    2 -0.000722529982 -0.000264996199
    6    2    4    1    3  0.001398439326 -0.000215529729
    6    2    4    2    3 -0.000468967754 -0.000974307234
    6    2    4    3    3  0.001059982650 -0.000683230258
    6    2    4    4    3  0.001855765601  0.001397724662
    6    2    4    1    4  0.000469077616 -0.000973714043
    6    2    4    2    4  0.001397653667  0.000215558055
    6    2    4    3    4 -0.001855129008  0.001397034060
    6    2    4    4    4  0.001058800299  0.000681746320
    6    2    5    1    1  0.000775875371  0.000615932548
    6    2    5    2    1  0.000069104882  0.000714769478
    6    2    5    3    1 -0.000147056600 -0.000459840615
    6    2    5    4    1 -0.000245056607  0.001297692646
    6    2    5    1    2 -0.000069267836  0.000714590551
    6    2    5    2    2  0.000775883462 -0.000616238744
    6    2    5    3    2  0.000245054441  0.001297024064
    6    2    5    4    2 -0.000147544139  0.000459651037
    6    2    5    1    3 -0.000734999919  0.000229679832
    6    2    5    2    3  0.000879497160  0.000518792928
    6    2    5    3    3 -0.000680166663 -0.000418819221
    6    2    5    4    3  0.000757814137  0.000810638716
    6    2    5    1    4 -0.000879428035  0.000518840909
    6    2    5    2    4 -0.000735182351 -0.000229748325
    6    2    5    3    4 -0.000757273142  0.000810228417
    6    2    5    4    4 -0.000679659449  0.000419125847
    6    3   -5    1    1 -0.000407171072 -0.000412699844
    6    3   -5    2    1  0.000327178928 -0.000717409386
    6    3   -5    3    1 -0.000782842312 -0.001286848173
    6    3   -5    4    1 -0.000137738504 -0.001540599842
    6    3   -5    1    2 -0.000326920278 -0.000717524248
    6    3   -5    2    2 -0.000407315956  0.000412587967
    6    3   -5    3    2  0.000137506677 -0.001539945989
    6    3   -5    4    2 -0.000782799840  0.001286498985
    6    3   -5    1    3 -0.000735678976  0.000229088063
    6    3   -5    2    3 -0.000888909844  0.000502233011
    6    3   -5    3    3  0.000356891680  0.000029472639
    6    3   -5    4    3 -0.000283677914  0.000504840281
    6    3   -5    1    4  0.000889286439  0.000502249564
    6    3   -5    2    4 -0.000735407707 -0.000229915441
    6    3   -5    3    4  0.000283611118  0.000504964423
    6    3   -5    4    4  0.000356485869 -0.000029361200
    6    3   -4    1    1  0.000666913737  0.000073880863
    6    3   -4    2    1 -0.000863482841  0.000282082488
    6    3   -4    3    1  0.001549111194  0.000417769274
    6    3   -4    4    1  0.001275772743 -0.000425764433
    6    3   -4    1    2  0.000863166698  0.000282888475
    6    3   -4    2    2  0.000667197650 -0.000073890473
    6    3   -4    3    2 -0.001276072901 -0.000426082692
    6    3   -4    4    2  0.001549154737 -0.000417711392
    6    3   -4    1    3  0.000375817607 -0.000332652561
    6    3   -4    2    3  0.000373785459  0.001216355611
    6    3   -4    3    3 -0.000763384162  0.000037384242
    6    3   -4    4    3  0.000387756214 -0.000186951130
    6    3   -4    1    4 -0.000373760288  0.001216585630
    6    3   -4    2    4  0.000375398631  0.000333115345
    6    3   -4    3    4 -0.000387755495 -0.000187297427
    6    3   -4    4    4 -0.000764343834 -0.000037374238
    6    3   -3    1    1 -0.001002002419 -0.000436883381
    6    3   -3    2    1  0.001165413152 -0.000620037691
    6    3   -3    3    1 -0.002142242007 -0.000019429423
    6    3   -3    4    1 -0.000691537255  0.000030690206
    6    3   -3    1    2 -0.001165369623 -0.000620322975
    6    3   -3    2    2 -0.001002067429  0.000436301209
    6    3   -3    3    2  0.000691147861  0.000030300035
    6    3   -3    4    2 -0.002142557713  0.000020352574
    6    3   -3    1    3 -0.000152889796 -0.000430439168
    6    3   -3    2    3  0.000109265240 -0.000682576111
    6    3   -3    3    3  0.000735732968  0.000069873478
    6    3   -3    4    3 -0.001473176034  0.001568634042
    6    3   -3    1    4 -0.000108651791 -0.000682313060
    6    3   -3    2    4 -0.000152980900  0.000430133133
    6    3   -3    3    4  0.001473393494  0.001568481633
    6    3   -3    4    4  0.000736478855 -0.000069291572
    6    3   -2    1    1 -0.001713193516  0.000550210489
    6    3   -2    2    1 -0.001208126089 -0.000292096494
    6    3   -2    3    1  0.000069920485  0.003297676168
    6    3   -2    4    1  0.000731903371  0.000248404424
    6    3   -2    1    2  0.001207912919 -0.000292399359
    6    3   -2    2    2 -0.001713072389 -0.000550035364
    6    3   -2    3    2 -0.000731397839  0.000248261704
    6    3   -2    4    2  0.000069031941 -0.003297888973
    6    3   -2    1    3  0.001321931322 -0.001331607688
    6    3   -2    2    3  0.003072965461  0.000720406489
    6    3   -2    3    3  0.000249238191 -0.000804539804
    6    3   -2    4    3 -0.000038058508  0.002335893782
    6    3   -2    1    4 -0.003072804716  0.000721033395
    6    3   -2    2    4  0.001321638182  0.001331335721
    6    3   -2    3    4  0.000037608369  0.002334909423
    6    3   -2    4    4  0.000248779774  0.000804365138
    6    3   -1    1    1 -0.000097953900  0.000371388185
    6    3   -1    2    1  0.000802723813 -0.001865967882
    6    3   -1    3    1  0.000916826169  0.004585995555
    6    3   -1    4    1 -0.000090334831  0.001442049457
    6    3   -1    1    2 -0.000802569137 -0.001865843941
    6    3   -1    2    2 -0.000097917428 -0.000371728120
    6    3   -1    3    2  0.000089495864  0.001442044751
    6    3   -1    4    2  0.000916850489 -0.004586803927
    6    3   -1    1    3 -0.002337954142  0.000996965523
    6    3   -1    2    3 -0.000517957760 -0.001031746281
    6    3   -1    3    3  0.001222204995  0.001571739950
    6    3   -1    4    3 -0.003169498665  0.000776182676
    6    3   -1    1    4  0.000518574713 -0.001031580457
    6    3   -1    2    4 -0.002337748991 -0.000997213412
    6    3   -1    3    4  0.003169284490  0.000776613652
    6    3   -1    4    4  0.001222506246 -0.001571400605
    6    3    0    1    1 -0.000777218990  0.000235871170
    6    3    0    2    1 -0.000854060452 -0.000190974893
    6    3    0    3    1  0.001456116702  0.001213446397
    6    3    0    4    1  0.001455264728 -0.003176527955
    6    3    0    1    2  0.000853604069 -0.000190620982
    6    3    0    2    2 -0.000777249808 -0.000235437208
    6    3    0    3    2 -0.001454406931 -0.003176641786
    6    3    0    4    2  0.001456736834 -0.001213790811
    6    3    0    1    3  0.001352964449 -0.001257746318
    6    3    0    2    3  0.003209221016 -0.000463464548
    6    3    0    3    3 -0.001782011126 -0.001035438972
    6    3    0    4    3  0.000382989300  0.000831250434
    6    3    0    1    4 -0.003208996831 -0.000462881508
    6    3    0    2    4  0.001352913944  0.001258586267
    6    3    0    3    4 -0.000383589443  0.000831509387
    6    3    0    4    4 -0.001781867908  0.001035004968
    6    3    1    1    1 -0.002132267092 -0.000147790882
    6    3    1    2    1 -0.000901755912 -0.000657810422
    6    3    1    3    1 -0.000341146030  0.002370632450
    6    3    1    4    1  0.000206188846  0.003829776539
    6    3    1    1    2  0.000901388371 -0.000657948250
    6    3    1    2    2 -0.002131745200  0.000147328466
    6    3    1    3    2 -0.000205751257  0.003830114630
    6    3    1    4    2 -0.000340438863 -0.002370984425
    6    3    1    1    3  0.000363018536 -0.000050931644
    6    3    1    2    3  0.003660248940  0.001333918295
    6    3    1    3    3  0.001054468033  0.000631218254
    6    3    1    4    3 -0.001858885339  0.002535555130
    6    3    1    1    4 -0.003660214229  0.001333915319
    6    3    1    2    4  0.000362773200  0.000051460353
    6    3    1    3    4  0.001858644581  0.002536353231
    6    3    1    4    4  0.001054437369 -0.000630756103
    6    3    2    1    1 -0.000045121644 -0.000338345051
    6    3    2    2    1  0.000573394715  0.000459138476
    6    3    2    3    1 -0.001039635441  0.002368213526
    6    3    2    4    1 -0.000400966728 -0.000591418682
    6    3    2    1    2 -0.000572704894  0.000459352408
    6    3    2    2    2 -0.000045202295  0.000338429365
    6    3    2    3    2  0.000401956373 -0.000591384554
    6    3    2    4    2 -0.001039524337 -0.002369447706
    6    3    2    1    3  0.002723430420 -0.000295667405
    6    3    2    2    3  0.001676833202 -0.000796691132
    6    3    2    3    3 -0.000220401559 -0.000642214865
    6    3    2    4    3 -0.000888862466  0.003682499841
    6    3    2    1    4 -0.001677200137 -0.000797424964
    6    3    2    2    4  0.002723320851  0.000296076876
    6    3    2    3    4  0.000887756348  0.003681945041
    6    3    2    4    4 -0.000220597678  0.000642130896
    6    3    3    1    1 -0.000152295327 -0.000202348757
    6    3    3    2    1 -0.000771488736 -0.000013409633
    6    3    3    3    1 -0.000146593024  0.001737313671
    6    3    3    4    1 -0.000324820107  0.000499144946
    6    3    3    1    2  0.000771780099 -0.000013495237
    6    3    3    2    2 -0.000152773985  0.000202917842
    6    3    3    3    2  0.000324449680  0.000499183646
    6    3    3    4    2 -0.000146875612 -0.001737156731
    6    3    3    1    3  0.000283550463  0.000512918877
    6    3    3    2    3  0.000605926786  0.000035878528
    6    3    3    3    3  0.000154254976  0.001660174568
    6    3    3    4    3 -0.001287739141  0.001137485132
    6    3    3    1    4 -0.000606427368  0.000036346919
    6    3    3    2    4  0.000283164837 -0.000513295064
    6    3    3    3    4  0.001287432343  0.001137674083
    6    3    3    4    4  0.000154675993 -0.001660744173
    6    3    4    1    1  0.000097736628  0.000445627172
    6    3    4    2    1 -0.000110187452  0.000724205735
    6    3    4    3    1  0.001424833245  0.000703702653
    6    3    4    4    1 -0.001613374322  0.000589635074
    6    3    4    1    2  0.000109827904  0.000724418514
    6    3    4    2    2  0.000098055393 -0.000445591999
    6    3    4    3    2  0.001613866051  0.000588823715
    6    3    4    4    2  0.001424847486 -0.000704505404
    6    3    4    1    3  0.001397159887 -0.000215920465
    6    3    4    2    3  0.001078242447  0.000080644086
    6    3    4    3    3 -0.000405751888  0.000796357787
    6    3    4    4    3 -0.000515777081 -0.000785855732
    6    3    4    1    4 -0.001078239506  0.000080543209
    6    3    4    2    4  0.001398143515  0.000215515037
    6    3    4    3    4  0.000515565205 -0.000785978744
    6    3    4    4    4 -0.000405352955 -0.000796392857
    6    3    5    1    1 -0.000407171072 -0.000412699844
    6    3    5    2    1  0.000327178928 -0.000717409386
    6    3    5    3    1 -0.000782842312 -0.001286848173
    6    3    5    4    1 -0.000137738504 -0.001540599842
    6    3    5    1    2 -0.000326920278 -0.000717524248
    6    3    5    2    2 -0.000407315956  0.000412587967
    6    3    5    3    2  0.000137506677 -0.001539945989
    6    3    5    4    2 -0.000782799840  0.001286498985
    6    3    5    1    3 -0.000735678976  0.000229088063
    6    3    5    2    3 -0.000888909844  0.000502233011
    6    3    5    3    3  0.000356891680  0.000029472639
    6    3    5    4    3 -0.000283677914  0.000504840281
    6    3    5    1    4  0.000889286439  0.000502249564
    6    3    5    2    4 -0.000735407707 -0.000229915441
    6    3    5    3    4  0.000283611118  0.000504964423
    6    3    5    4    4  0.000356485869 -0.000029361200
